
#(C) 2020 by FIZ Karlsruhe - Leibniz Institute for Information Infrastructure.  All rights reserved.
data_84780-ICSD
_database_code_ICSD 84780
_audit_creation_date 1999-01-19
_chemical_name_common 'Diammonium catena-pentafluoroferrate(III) - beta'
_chemical_formula_structural '(N H4)2 (Fe F5)'
_chemical_formula_sum 'H8 F5 Fe1 N2'
_chemical_name_structure_type (NH4)2FeF5
_exptl_crystal_density_diffrn 2.33
_citation_title

;
Structural and spectroscopic evidence for hydrogen bonding induced (N H4)(+)
cation ordering in beta-(N H4)2 Fe F5 at low temperature
;
loop_
_citation_id
_citation_journal_full
_citation_year
_citation_journal_volume
_citation_page_first
_citation_page_last
_citation_journal_id_ASTM
primary 'Journal of Solid State Chemistry' 1997 131 189 197 JSSCBI
loop_
_citation_author_citation_id
_citation_author_name
primary 'Croguennec, L.'
primary 'Deniard, P.'
primary 'Brec, R.'
primary 'Couzi, M.'
primary 'Sourisseau, C.'
primary 'Fourquet, J.L.'
primary 'Calage, Y.'
_cell_length_a 6.3385(3)
_cell_length_b 7.6191(2)
_cell_length_c 11.0298(4)
_cell_angle_alpha 90.
_cell_angle_beta 90.
_cell_angle_gamma 90.
_cell_volume 532.67
_cell_formula_units_Z 4
_space_group_name_H-M_alt 'P n m a'
_space_group_IT_number 62
loop_
_space_group_symop_id
_space_group_symop_operation_xyz
1 'x+1/2, y, -z+1/2'
2 'x, -y+1/2, z'
3 '-x+1/2, y+1/2, z+1/2'
4 '-x, -y, -z'
5 '-x+1/2, -y, z+1/2'
6 '-x, y+1/2, -z'
7 'x+1/2, -y+1/2, -z+1/2'
8 'x, y, z'
loop_
_atom_type_symbol
_atom_type_oxidation_number
N3- -3
Fe3+ 3
F1- -1
H1+ 1
loop_
_atom_site_label
_atom_site_type_symbol
_atom_site_symmetry_multiplicity
_atom_site_Wyckoff_symbol
_atom_site_fract_x
_atom_site_fract_y
_atom_site_fract_z
_atom_site_B_iso_or_equiv
_atom_site_occupancy
N1 N3- 4 c 0.428(1) 0.25 0.1958(9) 5.4(3) 1.
N2 N3- 4 c 0.510(1) 0.25 0.8584(9) 4.9(2) 1.
Fe1 Fe3+ 4 a 0 0 0 0.74(2) 1.
F1 F1- 4 c 0.0880(6) 0.25 0.0082(6) 1.6(1) 1.
F2 F1- 8 d 0.2271(7) 0.0521(5) 0.4367(5) 2.7(1) 1.
F3 F1- 8 d 0.1051(8) 0.5265(7) 0.1595(4) 2.9(1) 1.
#End of TTdata_84780-ICSD