
#(C) 2020 by FIZ Karlsruhe - Leibniz Institute for Information Infrastructure.  All rights reserved.
data_261532-ICSD
_database_code_ICSD 261532
_audit_creation_date 2011-08-01
_chemical_name_common 'Tris(ammonium) hexafluoroferrate(III)'
_chemical_formula_structural '(N H4)3 Fe F6'
_chemical_formula_sum 'H12 F6 Fe1 N3'
_exptl_crystal_density_diffrn 1.98
_diffrn_ambient_temperature 300.
_citation_title

;
Crystallographic, magnetic and dielectric studies of the potential
multiferroic cryolite (N H4)3 Fe F6
;
loop_
_citation_id
_citation_journal_full
_citation_year
_citation_journal_volume
_citation_page_first
_citation_page_last
_citation_journal_id_ASTM
primary 'Solid State Sciences' 2011 13 953 958 SSSCFJ
loop_
_citation_author_citation_id
_citation_author_name
primary 'Goff, R.J.'
primary 'Tang Chiu C.'
primary 'Parker, J.E.'
primary 'Morrison, F.D.'
primary 'Lightfoot, P.'
_cell_length_a 8.98258(9)
_cell_length_b 8.99631(9)
_cell_length_c 9.27961(9)
_cell_angle_alpha 90.039(1)
_cell_angle_beta 90.451(1)
_cell_angle_gamma 90.339(1)
_cell_volume 749.85
_cell_formula_units_Z 4
_space_group_name_H-M_alt 'F 1'
_space_group_IT_number 1
loop_
_space_group_symop_id
_space_group_symop_operation_xyz
1 'x, y, z'
2 'x, y+1/2, z+1/2'
3 'x+1/2, y, z+1/2'
4 'x+1/2, y+1/2, z'
loop_
_atom_type_symbol
_atom_type_oxidation_number
Fe3+ 3
N3- -3
F1- -1
H1+ 1
loop_
_atom_site_label
_atom_site_type_symbol
_atom_site_symmetry_multiplicity
_atom_site_Wyckoff_symbol
_atom_site_fract_x
_atom_site_fract_y
_atom_site_fract_z
_atom_site_B_iso_or_equiv
_atom_site_occupancy
Fe1 Fe3+ 4 a 0 0 0 0.0022(3) 1.
N1 N3- 4 a 0.2623(13) 0.2534(14) 0.2397(12) -0.0042(12) 1.
N2 N3- 4 a 0.2796(12) 0.2627(13) 0.7555(13) -0.0042(12) 1.
N3 N3- 4 a 0.5238(9) 0.4893(12) 0.5195(10) -0.0042(12) 1.
F1 F1- 4 a 0.0097(8) 0.2097(4) -0.0363(7) 0.0615(10) 1.
F2 F1- 4 a -0.0402(7) -0.2028(4) 0.0286(8) 0.0615(10) 1.
F3 F1- 4 a -0.2083(4) 0.0276(7) -0.0451(7) 0.0615(10) 1.
F4 F1- 4 a 0.2039(4) 0.0121(8) 0.0454(7) 0.0615(10) 1.
F5 F1- 4 a -0.0435(8) 0.0341(8) 0.2043(4) 0.0615(10) 1.
F6 F1- 4 a 0.0484(8) -0.0369(8) -0.2017(4) 0.0615(10) 1.
#End of TTdata_261532-ICSD