
#(C) 2020 by FIZ Karlsruhe - Leibniz Institute for Information Infrastructure.  All rights reserved.
data_261531-ICSD
_database_code_ICSD 261531
_audit_creation_date 2011-08-01
_chemical_name_common 'Tris(ammonium) hexafluoroferrate(III)'
_chemical_formula_structural '(N H4)3 Fe F6'
_chemical_formula_sum 'H12 F6 Fe1 N3'
_exptl_crystal_density_diffrn 1.98
_diffrn_ambient_temperature 100.
_citation_title

;
Crystallographic, magnetic and dielectric studies of the potential
multiferroic cryolite (N H4)3 Fe F6
;
loop_
_citation_id
_citation_journal_full
_citation_year
_citation_journal_volume
_citation_page_first
_citation_page_last
_citation_journal_id_ASTM
primary 'Solid State Sciences' 2011 13 953 958 SSSCFJ
loop_
_citation_author_citation_id
_citation_author_name
primary 'Goff, R.J.'
primary 'Tang Chiu C.'
primary 'Parker, J.E.'
primary 'Morrison, F.D.'
primary 'Lightfoot, P.'
_cell_length_a 8.98258(9)
_cell_length_b 8.99631(9)
_cell_length_c 9.27961(9)
_cell_angle_alpha 90.039(1)
_cell_angle_beta 90.451(1)
_cell_angle_gamma 90.339(1)
_cell_volume 749.85
_cell_formula_units_Z 4
_space_group_name_H-M_alt 'F 1'
_space_group_IT_number 1
loop_
_space_group_symop_id
_space_group_symop_operation_xyz
1 'x, y, z'
2 'x, y+1/2, z+1/2'
3 'x+1/2, y, z+1/2'
4 'x+1/2, y+1/2, z'
loop_
_atom_type_symbol
_atom_type_oxidation_number
Fe3+ 3
N3- -3
F1- -1
H1+ 1
loop_
_atom_site_label
_atom_site_type_symbol
_atom_site_symmetry_multiplicity
_atom_site_Wyckoff_symbol
_atom_site_fract_x
_atom_site_fract_y
_atom_site_fract_z
_atom_site_B_iso_or_equiv
_atom_site_occupancy
Fe1 Fe3+ 4 a 0 0 0 0.0075(3) 1.
N1 N3- 4 a 0.2508(11) 0.2618(12) 0.2416(13) 0.0018(9) 1.
N2 N3- 4 a 0.2613(10) 0.2670(11) 0.7553(13) 0.0018(9) 1.
N3 N3- 4 a 0.5233(9) 0.5100(12) 0.4784(7) 0.0018(9) 1.
F1 F1- 4 a -0.0602(8) 0.2005(6) -0.0018(7) 0.0274(9) 1.
F2 F1- 4 a -0.0548(8) -0.2109(8) 0.0487(6) 0.0274(9) 1.
F3 F1- 4 a -0.2159(7) 0.0137(9) -0.0689(6) 0.0274(9) 1.
F4 F1- 4 a 0.2052(8) 0.0461(8) 0.0157(6) 0.0274(9) 1.
F5 F1- 4 a -0.0085(7) 0.0387(8) 0.2033(7) 0.0274(9) 1.
F6 F1- 4 a 0.0720(6) -0.0248(8) -0.2017(7) 0.0274(9) 1.
#End of TTdata_261531-ICSD