
#(C) 2020 by FIZ Karlsruhe - Leibniz Institute for Information Infrastructure.  All rights reserved.
data_423231-ICSD
_database_code_ICSD 423231
_audit_creation_date 2012-02-01
_chemical_name_common 'Triammine trifluorido iron(III)'
_chemical_formula_structural 'Fe F3 (N H3)3'
_chemical_formula_sum 'H9 F3 Fe1 N3'
_exptl_crystal_density_diffrn 2.
_diffrn_ambient_temperature 150.
_citation_title 'mer-triammine trifluorido iron(III), mer-[Fe F3 (N H3)3]'
loop_
_citation_id
_citation_journal_full
_citation_year
_citation_journal_volume
_citation_page_first
_citation_page_last
_citation_journal_id_ASTM
primary 'Zeitschrift fuer Naturforschung, B: A Journal of Chemical Sciences'
2011 66 865 867 ZNBSEN
loop_
_citation_author_citation_id
_citation_author_name
primary 'Kraus, F.'
primary 'Baer, S.A.'
_cell_length_a 7.3559(8)
_cell_length_b 9.5447(9)
_cell_length_c 7.7722(7)
_cell_angle_alpha 90.
_cell_angle_beta 92.009(9)
_cell_angle_gamma 90.
_cell_volume 545.35
_cell_formula_units_Z 4
_space_group_name_H-M_alt 'P 1 21/n 1'
_space_group_IT_number 14
loop_
_space_group_symop_id
_space_group_symop_operation_xyz
1 '-x+1/2, y+1/2, -z+1/2'
2 '-x, -y, -z'
3 'x+1/2, -y+1/2, z+1/2'
4 'x, y, z'
loop_
_atom_type_symbol
_atom_type_oxidation_number
Fe3+ 3
F1- -1
N3- -3
H1+ 1
N3- -3
H1+ 1
N3- -3
H1+ 1
loop_
_atom_site_label
_atom_site_type_symbol
_atom_site_symmetry_multiplicity
_atom_site_Wyckoff_symbol
_atom_site_fract_x
_atom_site_fract_y
_atom_site_fract_z
_atom_site_U_iso_or_equiv
_atom_site_occupancy
Fe1 Fe3+ 4 e 0.12728(5) 0.74859(5) 0.35602(4) 0.01078(10) 1
F1 F1- 4 e 0.14018(19) 0.83518(17) 0.13694(18) 0.0158(3) 1
F2 F1- 4 e 0.2219(2) 0.91478(16) 0.46240(19) 0.0171(4) 1
F3 F1- 4 e 0.11564(19) 0.66383(18) 0.57639(18) 0.0172(3) 1
N1 N3- 4 e 0.3925(3) 0.6600(3) 0.3337(3) 0.0149(5) 1
H1 H1+ 4 e 0.444(4) 0.703(3) 0.264(4) 0.021(9) 1
H2 H1+ 4 e 0.457(5) 0.669(4) 0.427(4) 0.038(10) 1
H3 H1+ 4 e 0.379(4) 0.571(4) 0.319(4) 0.033(10) 1
N2 N3- 4 e 0.0167(4) 0.5668(3) 0.2350(3) 0.0148(5) 1
H4 H1+ 4 e -0.073(4) 0.584(3) 0.158(4) 0.011(7) 1
H5 H1+ 4 e 0.095(4) 0.524(3) 0.169(4) 0.018(8) 1
H6 H1+ 4 e -0.024(4) 0.510(3) 0.312(4) 0.030(10) 1
N3 N3- 4 e -0.1441(3) 0.8181(3) 0.3804(3) 0.0147(5) 1
H7 H1+ 4 e -0.196(4) 0.819(3) 0.282(4) 0.026(9) 1
H8 H1+ 4 e -0.200(4) 0.762(3) 0.448(4) 0.021(8) 1
H9 H1+ 4 e -0.152(4) 0.899(4) 0.422(4) 0.028(9) 1
loop_
_atom_site_aniso_label
_atom_site_aniso_type_symbol
_atom_site_aniso_U_11
_atom_site_aniso_U_22
_atom_site_aniso_U_33
_atom_site_aniso_U_12
_atom_site_aniso_U_13
_atom_site_aniso_U_23
Fe1 Fe3+ 0.01319(16) 0.00970(15) 0.00935(15) -0.00061(19) -0.00124(10)
-0.00038(18)
F1 F1- 0.0180(8) 0.0161(9) 0.0132(7) -0.0003(7) -0.0003(6) 0.0017(6)
F2 F1- 0.0205(9) 0.0133(8) 0.0172(8) -0.0010(7) -0.0025(6) -0.0040(6)
F3 F1- 0.0198(8) 0.0188(9) 0.0127(8) -0.0023(7) -0.0029(6) 0.0035(6)
N1 N3- 0.0166(13) 0.0155(13) 0.0126(12) 0.0001(11) -0.0003(10) 0.0006(10)
N2 N3- 0.0190(13) 0.0143(13) 0.0109(11) -0.0012(10) -0.0019(10) 0.0014(10)
N3 N3- 0.0191(13) 0.0144(13) 0.0104(11) -0.0009(11) -0.0006(9) -0.0015(10)
#End of TTdata_423231-ICSD