
#(C) 2020 by FIZ Karlsruhe - Leibniz Institute for Information Infrastructure.  All rights reserved.
data_48201-ICSD
_database_code_ICSD 48201
_audit_creation_date 1986-04-15
_chemical_name_common 'Ammonium tetrafluoroferrate(III)'
_chemical_formula_structural 'N H4 (Fe F4)'
_chemical_formula_sum 'H4 F4 Fe1 N1'
_exptl_crystal_density_diffrn 2.73
_citation_title
'Room-Temperature Structure of Ammonium Tetrafluorate(III), N H4 (Fe F4)'
loop_
_citation_id
_citation_journal_full
_citation_year
_citation_journal_volume
_citation_page_first
_citation_page_last
_citation_journal_id_ASTM
primary 'Acta Crystallographica, Section C: Crystal Structure Communications'
1985 41 657 660 ACSCEE
loop_
_citation_author_citation_id
_citation_author_name
primary 'le Blanc, M.'
primary 'Ferey, G.'
primary 'Pape, R.'
_cell_length_a 7.559(4)
_cell_length_b 7.575(4)
_cell_length_c 12.754(8)
_cell_angle_alpha 90.
_cell_angle_beta 90.
_cell_angle_gamma 90.
_cell_volume 730.29
_cell_formula_units_Z 8
_space_group_name_H-M_alt 'P n m a'
_space_group_IT_number 62
loop_
_space_group_symop_id
_space_group_symop_operation_xyz
1 'x+1/2, y, -z+1/2'
2 'x, -y+1/2, z'
3 '-x+1/2, y+1/2, z+1/2'
4 '-x, -y, -z'
5 '-x+1/2, -y, z+1/2'
6 '-x, y+1/2, -z'
7 'x+1/2, -y+1/2, -z+1/2'
8 'x, y, z'
loop_
_atom_type_symbol
_atom_type_oxidation_number
Fe3+ 3
F1- -1
N3- -3
H1+ 1
loop_
_atom_site_label
_atom_site_type_symbol
_atom_site_symmetry_multiplicity
_atom_site_Wyckoff_symbol
_atom_site_fract_x
_atom_site_fract_y
_atom_site_fract_z
_atom_site_B_iso_or_equiv
_atom_site_occupancy
Fe1 Fe3+ 4 a 0 0 0 . 1.
Fe2 Fe3+ 4 b 0 0 0.5 . 1.
F1 F1- 4 c 0.0364(6) 0.25 -.0309(4) . 1.
F2 F1- 8 d 0.2501(3) 0.0047(4) 0.4695(3) . 1.
F3 F1- 4 c 0.4492(6) 0.25 0.0187(3) . 1.
F4 F1- 8 d 0.0484(5) 0.0352(5) 0.1418(3) . 1.
F5 F1- 8 d 0.0360(4) 0.0331(5) 0.6438(3) . 1.
N1 N3- 4 c 0.2880(9) 0.25 0.2562(7) . 1.
N2 N3- 4 c 0.2747(7) 0.25 0.7594(6) . 1.
loop_
_atom_site_aniso_label
_atom_site_aniso_type_symbol
_atom_site_aniso_U_11
_atom_site_aniso_U_22
_atom_site_aniso_U_33
_atom_site_aniso_U_12
_atom_site_aniso_U_13
_atom_site_aniso_U_23
Fe1 Fe3+ 0.0076(7) 0.0084(23) 0.0114(23) -.0003(3) 0.0000(3) 0.0002(3)
Fe2 Fe3+ 0.0066(7) 0.0044(48) 0.0108(22) -.0001(3) -.0001(3) 0.0002(2)
F1 F1- 0.0244(20) 0.0076(19) 0.0368(23) 0 0.0089(24) 0
F2 F1- 0.0085(11) 0.0200(12) 0.0350(15) 0.0090(14) 0.0004(13) -.0036(1)
F3 F1- 0.0180(17) 0.0065(19) 0.0367(25) 0 0.0060(21) 0
F4 F1- 0.0269(15) 0.0296(17) 0.0171(19) -.0056(15) -.0049(17) -.0010(1)
F5 F1- 0.0261(15) 0.0288(17) 0.0103(17) -.0026(15) -.0037(15) 0.0033(1)
N1 N3- 0.0350(38) 0.0262(34) 0.0157(36) 0 -.0068(32) 0
N2 N3- 0.0193(37) 0.0249(34) 0.0254(42) 0 -.0017(33) 0
#End of TTdata_48201-ICSD