
#(C) 2020 by FIZ Karlsruhe - Leibniz Institute for Information Infrastructure.  All rights reserved.
data_182179-ICSD
_database_code_ICSD 182179
_audit_creation_date 2012-02-01
_chemical_name_common
'Iron oxide hydroxide fluoride hydrate (1/0.3/0.7/1/0.175)'
_chemical_formula_structural 'Fe (O0.3 (O H)0.7) F (H2 O)0.175'
_chemical_formula_sum 'H1.05 F1 Fe1 O1.175'
_exptl_crystal_density_diffrn 3.81
_citation_title
'Investigation of Fe-based oxyhydroxy-flouride with hollandite-type structure'
loop_
_citation_id
_citation_journal_full
_citation_year
_citation_journal_volume
_citation_page_first
_citation_page_last
_citation_journal_id_ASTM
primary 'Journal of Fluorine Chemistry' 2011 132 690 697 JFLCAR
loop_
_citation_author_citation_id
_citation_author_name
primary 'Demourgues, A.'
primary 'Wattiaux, A.'
_cell_length_a 10.447(7)
_cell_length_b 3.028(2)
_cell_length_c 10.445(4)
_cell_angle_alpha 90.
_cell_angle_beta 90.00(3)
_cell_angle_gamma 90.
_cell_volume 330.41
_cell_formula_units_Z 8
_space_group_name_H-M_alt 'I 1 2/m 1'
_space_group_IT_number 12
loop_
_space_group_symop_id
_space_group_symop_operation_xyz
1 'x, -y, z'
2 '-x, -y, -z'
3 '-x, y, -z'
4 'x, y, z'
5 'x+1/2, -y+1/2, z+1/2'
6 '-x+1/2, -y+1/2, -z+1/2'
7 '-x+1/2, y+1/2, -z+1/2'
8 'x+1/2, y+1/2, z+1/2'
loop_
_atom_type_symbol
_atom_type_oxidation_number
Fe2+ 2.3
O2- -2
H1+ 1
F1- -1
O2- -2
H1+ 1
F1- -1
O2- -2
H1+ 1
loop_
_atom_site_label
_atom_site_type_symbol
_atom_site_symmetry_multiplicity
_atom_site_Wyckoff_symbol
_atom_site_fract_x
_atom_site_fract_y
_atom_site_fract_z
_atom_site_B_iso_or_equiv
_atom_site_occupancy
Fe1 Fe2+ 4 i 0.8656(5) 0 0.3429(4) 0.686(4) 1.
Fe2 Fe2+ 4 i 0.3424(5) 0 0.1540(4) 0.722(4) 1.
O1 O2- 4 i 0.8493(5) 0.5 0.2111(7) 0.809(7) 1.
H1 H1+ 8 j 0.608(7) 0.078(3) 0.383(7) 1. 0.36(5)
F1 F1- 4 i 0.8455(8) 0.5 0.4670(7) 0.508(7) 1.
O2 O2- 4 i 0.2002(5) 0.5 0.1633(7) 0.627(5) 1.
H2 H1+ 8 j 0.372(7) 0.077(3) 0.429(7) 1. 0.34(7)
F2 F1- 4 i 0.0469(8) 0 0.3278(7) 0.508(7) 1.
O3 O2- 2 b 0 0.5 0 1.5 0.70(8)
#End of TTdata_182179-ICSD