
#(C) 2020 by FIZ Karlsruhe - Leibniz Institute for Information Infrastructure.  All rights reserved.
data_194117-ICSD
_database_code_ICSD 194117
_audit_creation_date 2015-08-01
_chemical_name_common 'Iron hydroxide fluoride'
_chemical_formula_structural 'Fe (O H) F'
_chemical_formula_sum 'H1 F1 Fe1 O1'
_exptl_crystal_density_diffrn 3.87
_diffrn_ambient_temperature 293.
_citation_title

;
Synthesis and characterization of the crystal and magnetic structures and
properties of the hydroxyfluorides Fe (O H) F and Co (O H) F
;
loop_
_citation_id
_citation_journal_full
_citation_year
_citation_journal_volume
_citation_page_first
_citation_page_last
_citation_journal_id_ASTM
primary 'Inorganic Chemistry' 2014 53 365 374 INOCAJ
loop_
_citation_author_citation_id
_citation_author_name
primary 'Ben Yahia, Hamdi'
primary 'Shikano, Masahiro'
primary 'Tabuchi, Mitsuharu'
primary 'Kobayashi, Hironori'
primary 'Avdeev, Maxim'
primary 'Tan, Thiam Teck'
primary 'Liu, Samuel'
primary 'Ling, Chris D.'
_cell_length_a 10.471(3)
_cell_length_b 3.2059(10)
_cell_length_c 4.6977(14)
_cell_angle_alpha 90
_cell_angle_beta 90
_cell_angle_gamma 90
_cell_volume 157.69
_cell_formula_units_Z 4
_space_group_name_H-M_alt 'P n m a'
_space_group_IT_number 62
loop_
_space_group_symop_id
_space_group_symop_operation_xyz
1 'x+1/2, y, -z+1/2'
2 'x, -y+1/2, z'
3 '-x+1/2, y+1/2, z+1/2'
4 '-x, -y, -z'
5 '-x+1/2, -y, z+1/2'
6 '-x, y+1/2, -z'
7 'x+1/2, -y+1/2, -z+1/2'
8 'x, y, z'
loop_
_atom_type_symbol
_atom_type_oxidation_number
Fe2+ 2
F1- -1
O2- -2
H1+ 1
F1- -1
O2- -2
H1+ 1
loop_
_atom_site_label
_atom_site_type_symbol
_atom_site_symmetry_multiplicity
_atom_site_Wyckoff_symbol
_atom_site_fract_x
_atom_site_fract_y
_atom_site_fract_z
_atom_site_U_iso_or_equiv
_atom_site_occupancy
Fe1 Fe2+ 4 c 0.36438(4) 0.25 0.47205(11) 0.0141(2) 1
F1 F1- 4 c 0.5567(10) 0.25 0.302(2) 0.0156(7) 0.5
O1 O2- 4 c 0.5478(13) 0.25 0.284(3) 0.0156(7) 0.5
H1 H1+ 4 c 0.59718 0.25 0.147407 0.0156(7) 0.5
F2 F1- 4 c 0.2988(7) 0.75 0.2200(17) 0.0149(7) 0.5
O2 O2- 4 c 0.3119(9) 0.75 0.194(2) 0.0149(7) 0.5
H2 H1+ 4 c 0.622(7) 0.25 0.912(18) 0.0149(7) 0.5
loop_
_atom_site_aniso_label
_atom_site_aniso_type_symbol
_atom_site_aniso_U_11
_atom_site_aniso_U_22
_atom_site_aniso_U_33
_atom_site_aniso_U_12
_atom_site_aniso_U_13
_atom_site_aniso_U_23
Fe1 Fe2+ 0.0124(4) 0.0121(4) 0.0176(4) 0 -0.00034(16) 0
#End of TTdata_194117-ICSD