
#(C) 2020 by FIZ Karlsruhe - Leibniz Institute for Information Infrastructure.  All rights reserved.
data_11080-ICSD
_database_code_ICSD 11080
_audit_creation_date 2020-08-01
_chemical_name_common 'Iron hydroxyfluoride hydrate'
_chemical_formula_structural 'Fe F2.667 (O H)0.34 (H2 O)0.21'
_chemical_formula_sum 'H0.76 F2.667 Fe1 O0.55'
_exptl_crystal_density_diffrn 3.24
_diffrn_ambient_temperature 296.
_citation_title

;
Synthesis by thermal decomposition of two iron hydroxyfluorides: structural
effects of Li insertion
;
loop_
_citation_id
_citation_journal_full
_citation_year
_citation_journal_volume
_citation_page_first
_citation_page_last
_citation_journal_id_ASTM
primary 'Chemistry of Materials' 2019 31 4246 4257 CMATEX
loop_
_citation_author_citation_id
_citation_author_name
primary 'Lemoine, Kévin'
primary 'Zhang, Leiting'
primary 'Dambournet, Damien'
primary 'Grenèche, Jean-Marc'
primary 'Hémon-Ribaud, Annie'
primary 'Leblanc, Marc'
primary 'Borkiewicz, Olaf J.'
primary 'Tarascon, Jean-Marie'
primary 'Maisonneuve, Vincent'
primary 'Lhoste, Jérôme'
_cell_length_a 7.3957(3)
_cell_length_b 7.3957(3)
_cell_length_c 7.5452(3)
_cell_angle_alpha 90.
_cell_angle_beta 90.
_cell_angle_gamma 120.
_cell_volume 357.4
_cell_formula_units_Z 6
_space_group_name_H-M_alt 'P 63/m'
_space_group_IT_number 176
loop_
_space_group_symop_id
_space_group_symop_operation_xyz
1 '-x+y, -x, -z+1/2'
2 '-y, x-y, -z+1/2'
3 'x, y, -z+1/2'
4 'x-y, x, -z'
5 'y, -x+y, -z'
6 '-x, -y, -z'
7 'x-y, x, z+1/2'
8 'y, -x+y, z+1/2'
9 '-x, -y, z+1/2'
10 '-x+y, -x, z'
11 '-y, x-y, z'
12 'x, y, z'
loop_
_atom_type_symbol
_atom_type_oxidation_number
Fe3+ 3
F1- -1
O2- -2
H1+ 1
loop_
_atom_site_label
_atom_site_type_symbol
_atom_site_symmetry_multiplicity
_atom_site_Wyckoff_symbol
_atom_site_fract_x
_atom_site_fract_y
_atom_site_fract_z
_atom_site_B_iso_or_equiv
_atom_site_occupancy
Fe1 Fe3+ 6 g 0.5 0. 0. 0. 1.
F1 F1- 6 h 0.4617(9) 0.0242(11) 0.25 0. 1.
F2 F1- 12 i 0.2136(14) -0.2005(14) 0.0353(4) 0. 0.83333
O1 O2- 12 i 0.2136(14) -0.2005(14) 0.0353(4) 0. 0.16667
O2 O2- 12 i 0.0425(19) 0.0851(19) 0.6469(16) 0. 0.1077(20)
#End of TTdata_11080-ICSD