
#(C) 2020 by FIZ Karlsruhe - Leibniz Institute for Information Infrastructure.  All rights reserved.
data_54-ICSD
_database_code_ICSD 54
_audit_creation_date 2020-08-01
_chemical_name_common 'Iron hydroxyfluoride hydrate'
_chemical_formula_structural 'Fe F2.66 (O H)0.34 (H2 O)0.13'
_chemical_formula_sum 'H0.6 F2.66 Fe1 O0.47'
_exptl_crystal_density_diffrn 3.19
_citation_title

;
Synthesis by thermal decomposition of two iron hydroxyfluorides: structural
effects of Li insertion
;
loop_
_citation_id
_citation_journal_full
_citation_year
_citation_journal_volume
_citation_page_first
_citation_page_last
_citation_journal_id_ASTM
primary 'Chemistry of Materials' 2019 31 4246 4257 CMATEX
loop_
_citation_author_citation_id
_citation_author_name
primary 'Lemoine, Kévin'
primary 'Zhang, Leiting'
primary 'Dambournet, Damien'
primary 'Grenèche, Jean-Marc'
primary 'Hémon-Ribaud, Annie'
primary 'Leblanc, Marc'
primary 'Borkiewicz, Olaf J.'
primary 'Tarascon, Jean-Marie'
primary 'Maisonneuve, Vincent'
primary 'Lhoste, Jérôme'
_cell_length_a 7.396(1)
_cell_length_b 12.807(1)
_cell_length_c 7.545(1)
_cell_angle_alpha 90.
_cell_angle_beta 90.
_cell_angle_gamma 90.
_cell_volume 714.67
_cell_formula_units_Z 12
_space_group_name_H-M_alt 'C m c m'
_space_group_IT_number 63
loop_
_space_group_symop_id
_space_group_symop_operation_xyz
1 '-x, y, -z+1/2'
2 '-x, -y, z+1/2'
3 '-x, y, z'
4 '-x, -y, -z'
5 'x, -y, z+1/2'
6 'x, y, -z+1/2'
7 'x, -y, -z'
8 'x, y, z'
9 '-x+1/2, y+1/2, -z+1/2'
10 '-x+1/2, -y+1/2, z+1/2'
11 '-x+1/2, y+1/2, z'
12 '-x+1/2, -y+1/2, -z'
13 'x+1/2, -y+1/2, z+1/2'
14 'x+1/2, y+1/2, -z+1/2'
15 'x+1/2, -y+1/2, -z'
16 'x+1/2, y+1/2, z'
loop_
_atom_type_symbol
_atom_type_oxidation_number
Fe3+ 3
F1- -1
O2- -2
F1- -1
O2- -2
H1+ 1
loop_
_atom_site_label
_atom_site_type_symbol
_atom_site_symmetry_multiplicity
_atom_site_Wyckoff_symbol
_atom_site_fract_x
_atom_site_fract_y
_atom_site_fract_z
_atom_site_B_iso_or_equiv
_atom_site_occupancy
Fe1 Fe3+ 4 b 0 0.5 0 . 1.
Fe2 Fe3+ 8 d 0.25 0.25 0 . 1.
F1 F1- 8 f 0 0.1638(6) 0.5469(16) . 0.49
O1 O2- 8 f 0 0.1638(6) 0.5469(16) . 0.51
F2 F1- 16 h 0.1715(9) 0.3900(8) 0.0235(12) . 1.
F3 F1- 4 c 0 0.5274(15) 0.25 . 1.
F4 F1- 8 g 0.206(2) 0.2282(8) 0.25 . 1.
O2 O2- 4 c 0 .048(2) 0.25 . 0.39
#End of TTdata_54-ICSD