
#(C) 2020 by FIZ Karlsruhe - Leibniz Institute for Information Infrastructure.  All rights reserved.
data_38366-ICSD
_database_code_ICSD 38366
_audit_creation_date 1984-12-31
_chemical_name_common 'Iron fluoroferrate dihydrate'
_chemical_formula_structural 'Fe Fe2 F8 (H2 O)2'
_chemical_formula_sum 'H4 F8 Fe3 O2'
_exptl_crystal_density_diffrn 3.14
_citation_title

;
Idle spin behavior of the shifted hexagonal tungsten bronze type compounds Fe
Fe2 F8 (H2 O)2 and Mn Fe2 F8 (H2 O)2
;
loop_
_citation_id
_citation_journal_full
_citation_year
_citation_journal_volume
_citation_page_first
_citation_page_last
_citation_journal_id_ASTM
primary 'Journal of Solid State Chemistry' 1984 53 360 368 JSSCBI
loop_
_citation_author_citation_id
_citation_author_name
primary 'le Blanc, M.'
primary 'Ferey, G.'
primary 'Calage, Y.'
primary 'de Pape, R.'
_cell_length_a 7.609(5)
_cell_length_b 7.514(6)
_cell_length_c 7.453(4)
_cell_angle_alpha 90.
_cell_angle_beta 118.21(3)
_cell_angle_gamma 90.
_cell_volume 375.5
_cell_formula_units_Z 2
_space_group_name_H-M_alt 'C 1 2/m 1'
_space_group_IT_number 12
loop_
_space_group_symop_id
_space_group_symop_operation_xyz
1 '-x, y, -z'
2 '-x, -y, -z'
3 'x, -y, z'
4 'x, y, z'
5 '-x+1/2, y+1/2, -z'
6 '-x+1/2, -y+1/2, -z'
7 'x+1/2, -y+1/2, z'
8 'x+1/2, y+1/2, z'
loop_
_atom_type_symbol
_atom_type_oxidation_number
Fe2+ 2
Fe3+ 3
O2- -2
F1- -1
H1+ 1
loop_
_atom_site_label
_atom_site_type_symbol
_atom_site_symmetry_multiplicity
_atom_site_Wyckoff_symbol
_atom_site_fract_x
_atom_site_fract_y
_atom_site_fract_z
_atom_site_B_iso_or_equiv
_atom_site_occupancy
Fe1 Fe2+ 2 b 0 0.5 0 0.95(8) 1.
Fe2 Fe3+ 4 f 0.25 0.25 0.5 0.73(4) 1.
O1 O2- 4 i 0.2423(9) 0 0.0435(10) 3.69(40) 1.
F1 F1- 4 h 0 0.2925(7) 0.5 1.91(25) 1.
F2 F1- 4 i 0.1845(6) 0 0.4411(7) 1.42(22) 1.
F3 F1- 8 j 0.1277(6) 0.2952(4) 0.2138(5) 1.53(16) 1.
#End of TTdata_38366-ICSD