
#(C) 2020 by FIZ Karlsruhe - Leibniz Institute for Information Infrastructure.  All rights reserved.
data_39-ICSD
_database_code_ICSD 39
_audit_creation_date 2020-08-01
_chemical_name_common 'Diiron pentafluoride dihydrate'
_chemical_formula_structural 'Fe2 F5 (H2 O)2'
_chemical_formula_sum 'H4 F5 Fe2 O2'
_chemical_name_structure_type Fe2F5(H2O)2
_exptl_crystal_density_diffrn 2.97
_citation_title

;
Synthesis by thermal decomposition of two iron hydroxyfluorides: structural
effects of Li insertion
;
loop_
_citation_id
_citation_journal_full
_citation_year
_citation_journal_volume
_citation_page_first
_citation_page_last
_citation_journal_id_ASTM
primary 'Chemistry of Materials' 2019 31 4246 4257 CMATEX
loop_
_citation_author_citation_id
_citation_author_name
primary 'Lemoine, Kévin'
primary 'Zhang, Leiting'
primary 'Dambournet, Damien'
primary 'Grenèche, Jean-Marc'
primary 'Hémon-Ribaud, Annie'
primary 'Leblanc, Marc'
primary 'Borkiewicz, Olaf J.'
primary 'Tarascon, Jean-Marie'
primary 'Maisonneuve, Vincent'
primary 'Lhoste, Jérôme'
_cell_length_a 7.485(1)
_cell_length_b 10.888(1)
_cell_length_c 6.663(1)
_cell_angle_alpha 90.
_cell_angle_beta 90.
_cell_angle_gamma 90.
_cell_volume 543.01
_cell_formula_units_Z 4
_space_group_name_H-M_alt 'I m m a'
_space_group_IT_number 74
loop_
_space_group_symop_id
_space_group_symop_operation_xyz
1 '-x, y+1/2, -z'
2 '-x, -y+1/2, z'
3 '-x, y, z'
4 '-x, -y, -z'
5 'x, -y+1/2, z'
6 'x, y+1/2, -z'
7 'x, -y, -z'
8 'x, y, z'
9 '-x+1/2, y, -z+1/2'
10 '-x+1/2, -y, z+1/2'
11 '-x+1/2, y+1/2, z+1/2'
12 '-x+1/2, -y+1/2, -z+1/2'
13 'x+1/2, -y, z+1/2'
14 'x+1/2, y, -z+1/2'
15 'x+1/2, -y+1/2, -z+1/2'
16 'x+1/2, y+1/2, z+1/2'
loop_
_atom_type_symbol
_atom_type_oxidation_number
Fe2+ 2
Fe3+ 3
O2- -2
H1+ 1
F1- -1
loop_
_atom_site_label
_atom_site_type_symbol
_atom_site_symmetry_multiplicity
_atom_site_Wyckoff_symbol
_atom_site_fract_x
_atom_site_fract_y
_atom_site_fract_z
_atom_site_B_iso_or_equiv
_atom_site_occupancy
Fe1 Fe2+ 4 a 0 0 0 0.80(1) 1.
Fe2 Fe3+ 4 c 0.25 0.25 0.25 0.59(2) 1.
O1 O2- 8 h 0.5 0.5676(3) 0.2033(3) 1.97(5) 1.
H1 H1+ 16 j 0.4020(7) 0.588(2) 0.133(2) 2.38 1.
F1 F1- 16 j 0.2019(2) 0.1253(2) 0.0541(2) 1.38(2) 1.
F2 F1- 4 e 0 0.25 0.3344(4) 1.18(4) 1.
#End of TTdata_39-ICSD