
#(C) 2020 by FIZ Karlsruhe - Leibniz Institute for Information Infrastructure.  All rights reserved.
data_37-ICSD
_database_code_ICSD 37
_audit_creation_date 2020-08-01
_chemical_name_common 'Triiron octafluoride dihydrate'
_chemical_formula_structural 'Fe3 F8 (H2 O)2'
_chemical_formula_sum 'H4 F8 Fe3 O2'
_exptl_crystal_density_diffrn 3.18
_citation_title

;
Synthesis by thermal decomposition of two iron hydroxyfluorides: structural
effects of Li insertion
;
loop_
_citation_id
_citation_journal_full
_citation_year
_citation_journal_volume
_citation_page_first
_citation_page_last
_citation_journal_id_ASTM
primary 'Chemistry of Materials' 2019 31 4246 4257 CMATEX
loop_
_citation_author_citation_id
_citation_author_name
primary 'Lemoine, Kévin'
primary 'Zhang, Leiting'
primary 'Dambournet, Damien'
primary 'Grenèche, Jean-Marc'
primary 'Hémon-Ribaud, Annie'
primary 'Leblanc, Marc'
primary 'Borkiewicz, Olaf J.'
primary 'Tarascon, Jean-Marie'
primary 'Maisonneuve, Vincent'
primary 'Lhoste, Jérôme'
_cell_length_a 7.586(2)
_cell_length_b 7.472(2)
_cell_length_c 7.432(2)
_cell_angle_alpha 90.
_cell_angle_beta 118.230(4)
_cell_angle_gamma 90.
_cell_volume 371.16
_cell_formula_units_Z 2
_space_group_name_H-M_alt 'C 1 2/m 1'
_space_group_IT_number 12
loop_
_space_group_symop_id
_space_group_symop_operation_xyz
1 '-x, y, -z'
2 '-x, -y, -z'
3 'x, -y, z'
4 'x, y, z'
5 '-x+1/2, y+1/2, -z'
6 '-x+1/2, -y+1/2, -z'
7 'x+1/2, -y+1/2, z'
8 'x+1/2, y+1/2, z'
loop_
_atom_type_symbol
_atom_type_oxidation_number
Fe2+ 2
Fe3+ 3
O2- -2
H1+ 1
F1- -1
loop_
_atom_site_label
_atom_site_type_symbol
_atom_site_symmetry_multiplicity
_atom_site_Wyckoff_symbol
_atom_site_fract_x
_atom_site_fract_y
_atom_site_fract_z
_atom_site_B_iso_or_equiv
_atom_site_occupancy
Fe1 Fe2+ 2 b 0 0.5 0 0.77(2) 1.
Fe2 Fe3+ 4 f 0.25 0.25 0.5 0.49(1) 1.
O1 O2- 4 i 0.2450(5) 0 0.0423(5) 2.06(6) 1.
H1 H1+ 8 j 0.214(7) 0.097(6) 0.086(7) 4.0(9) 1.
F1 F1- 4 h 0 0.2952(2) 0.5 1.45(4) 1.
F2 F1- 4 i 0.1809(3) 0 0.4384(3) 1.13(4) 1.
F3 F1- 8 j 0.1294(2) 0.2975(2) 0.2141(2) 1.41(3) 1.
#End of TTdata_37-ICSD