
#(C) 2020 by FIZ Karlsruhe - Leibniz Institute for Information Infrastructure.  All rights reserved.
data_35359-ICSD
_database_code_ICSD 35359
_audit_creation_date 1983-12-31
_chemical_name_common 'Iron(III) fluoride hydrate (1/3/.33)'
_chemical_formula_structural 'Fe F3 (H2 O).33'
_chemical_formula_sum 'H0.66 F3 Fe1 O0.33'
_exptl_crystal_density_diffrn 3.33
_citation_title

;
Hexagonal Tungsten Bronze-Type Fe(III) Fluoride: (H2O)0.33FeF3; Crystal
Structure, Magnetic Properties, Dehydration to a New Form of Iron Trifluoride
;
loop_
_citation_id
_citation_journal_full
_citation_year
_citation_journal_volume
_citation_page_first
_citation_page_last
_citation_journal_id_ASTM
primary 'Journal of Solid State Chemistry' 1983 47 53 58 JSSCBI
loop_
_citation_author_citation_id
_citation_author_name
primary 'le Blanc, M.'
primary 'Ferey, G.'
primary 'Chevalier, P.'
primary 'Calage, Y.'
primary 'de Pape, R.'
_cell_length_a 7.423(3)
_cell_length_b 12.730(4)
_cell_length_c 7.526(3)
_cell_angle_alpha 90.
_cell_angle_beta 90.
_cell_angle_gamma 90.
_cell_volume 711.17
_cell_formula_units_Z 12
_space_group_name_H-M_alt 'C m c m'
_space_group_IT_number 63
loop_
_space_group_symop_id
_space_group_symop_operation_xyz
1 '-x, y, -z+1/2'
2 '-x, -y, z+1/2'
3 '-x, y, z'
4 '-x, -y, -z'
5 'x, -y, z+1/2'
6 'x, y, -z+1/2'
7 'x, -y, -z'
8 'x, y, z'
9 '-x+1/2, y+1/2, -z+1/2'
10 '-x+1/2, -y+1/2, z+1/2'
11 '-x+1/2, y+1/2, z'
12 '-x+1/2, -y+1/2, -z'
13 'x+1/2, -y+1/2, z+1/2'
14 'x+1/2, y+1/2, -z+1/2'
15 'x+1/2, -y+1/2, -z'
16 'x+1/2, y+1/2, z'
loop_
_atom_type_symbol
_atom_type_oxidation_number
Fe3+ 3
F1- -1
O2- -2
H1+ 1
loop_
_atom_site_label
_atom_site_type_symbol
_atom_site_symmetry_multiplicity
_atom_site_Wyckoff_symbol
_atom_site_fract_x
_atom_site_fract_y
_atom_site_fract_z
_atom_site_B_iso_or_equiv
_atom_site_occupancy
Fe1 Fe3+ 4 b 0 0.5 0 . 1.
Fe2 Fe3+ 8 d 0.25 0.25 0 . 1.
F1 F1- 8 f 0 0.2156(1) 0.5511(2) . 1.
F2 F1- 16 h 0.1876(1) 0.3962(1) 0.0434(2) . 1.
F3 F1- 4 c 0 0.5286(2) 0.25 . 1.
F4 F1- 8 g 0.2101(2) 0.2176(1) 0.25 . 1.
O1 O2- 4 c 0 -.0006(4) 0.25 . 1.
loop_
_atom_site_aniso_label
_atom_site_aniso_type_symbol
_atom_site_aniso_U_11
_atom_site_aniso_U_22
_atom_site_aniso_U_33
_atom_site_aniso_U_12
_atom_site_aniso_U_13
_atom_site_aniso_U_23
Fe1 Fe3+ 0.0084(1) 0.0065(1) 0.0066(1) 0 0 -.0001(2)
Fe2 Fe3+ 0.0061(1) 0.0088(1) 0.0073(1) 0.0010(1) 0.0002(1) -.0001(1)
F1 F1- 0.0072(5) 0.0244(8) 0.0176(6) 0 0 0.0017(6)
F2 F1- 0.0193(4) 0.0124(4) 0.0199(4) 0.0062(4) -.0025(4) -.0009(4)
F3 F1- 0.023(1) 0.0133(10) 0.0066(8) 0 0 0
F4 F1- 0.0179(7) 0.0201(8) 0.0078(6) -.0002(7) 0 0
O1 O2- 0.0519(28) 0.0410(27) 0.0721(40) 0 0 0
#End of TTdata_35359-ICSD