
#(C) 2020 by FIZ Karlsruhe - Leibniz Institute for Information Infrastructure.  All rights reserved.
data_14134-ICSD
_database_code_ICSD 14134
_audit_creation_date 1986-09-30
_chemical_name_common 'Iron(III) fluoride trihydrate - beta'
_chemical_formula_structural 'Fe F3 (H2 O)3'
_chemical_formula_sum 'H6 F3 Fe1 O3'
_chemical_name_structure_type AlF3(H2O)3
_exptl_crystal_density_diffrn 2.32
_citation_title

;
The crystal structure of beta iron(III) trifluoride trihydrate, beta-Fe F3 (H2
O)3
;
loop_
_citation_id
_citation_journal_full
_citation_year
_citation_journal_volume
_citation_page_first
_citation_page_last
_citation_journal_id_ASTM
primary 'Acta Crystallographica' 1964 17 1480 1480 ACCRA9
loop_
_citation_author_citation_id
_citation_author_name
primary 'Teufer, G.'
_cell_length_a 7.846
_cell_length_b 7.846
_cell_length_c 3.877
_cell_angle_alpha 90.
_cell_angle_beta 90.
_cell_angle_gamma 90.
_cell_volume 238.67
_cell_formula_units_Z 2
_space_group_name_H-M_alt 'P 4/n S'
_space_group_IT_number 85
loop_
_space_group_symop_id
_space_group_symop_operation_xyz
1 'y+1/2, -x+1/2, z'
2 '-y+1/2, x+1/2, z'
3 'y, -x, -z'
4 '-y, x, -z'
5 '-x+1/2, -y+1/2, -z'
6 'x+1/2, y+1/2, -z'
7 '-x, -y, z'
8 'x, y, z'
loop_
_atom_type_symbol
_atom_type_oxidation_number
Fe3+ 3
F1- -1
O2- -2
F1- -1
H1+ 1
loop_
_atom_site_label
_atom_site_type_symbol
_atom_site_symmetry_multiplicity
_atom_site_Wyckoff_symbol
_atom_site_fract_x
_atom_site_fract_y
_atom_site_fract_z
_atom_site_B_iso_or_equiv
_atom_site_occupancy
Fe1 Fe3+ 2 c 0 0.5 0.1453(12) 1.29 1.
F1 F1- 2 c 0 0.5 0.6421(42) 1.34 1.
O1 O2- 2 b 0 0 0.5 1.75 1.
O2 O2- 8 g 0.2754(9) 0.1025(9) 0.1394(21) 2.08 0.5
F2 F1- 8 g 0.2754(9) 0.1025(9) 0.1394(21) 2.08 0.5
#End of TTdata_14134-ICSD