
#(C) 2020 by FIZ Karlsruhe - Leibniz Institute for Information Infrastructure.  All rights reserved.
data_16671-ICSD
_database_code_ICSD 16671
_audit_creation_date 1986-09-30
_audit_update_record 2014-08-01
_chemical_name_common 'Iron(III) fluoride'
_chemical_formula_structural 'Fe F3'
_chemical_formula_sum 'F3 Fe1'
_chemical_name_structure_type FeF3
_exptl_crystal_density_diffrn 3.6
_citation_title

;
The crystal structures of the trifluorides of iron, cobalt, ruthenium,
rhodium, palladium and iridium
;
loop_
_citation_id
_citation_journal_full
_citation_year
_citation_journal_volume
_citation_page_first
_citation_page_last
_citation_journal_id_ASTM
primary 'Acta Crystallographica' 1957 10 63 69 ACCRA9
loop_
_citation_author_citation_id
_citation_author_name
primary 'Hepworth, M.A.'
primary 'Jack, K.H.'
primary 'Peacock, R.D.'
primary 'Westland, G.J.'
_cell_length_a 5.362(1)
_cell_length_b 5.362(1)
_cell_length_c 5.362(1)
_cell_angle_alpha 57.99(1)
_cell_angle_beta 57.99(1)
_cell_angle_gamma 57.99(1)
_cell_volume 103.98
_cell_formula_units_Z 2
_space_group_name_H-M_alt 'R -3 c R'
_space_group_IT_number 167
loop_
_space_group_symop_id
_space_group_symop_operation_xyz
1 '-x+1/2, -z+1/2, -y+1/2'
2 '-z+1/2, -y+1/2, -x+1/2'
3 '-y+1/2, -x+1/2, -z+1/2'
4 'x+1/2, z+1/2, y+1/2'
5 'z+1/2, y+1/2, x+1/2'
6 'y+1/2, x+1/2, z+1/2'
7 '-z, -x, -y'
8 '-y, -z, -x'
9 '-x, -y, -z'
10 'z, x, y'
11 'y, z, x'
12 'x, y, z'
loop_
_atom_type_symbol
_atom_type_oxidation_number
Fe3+ 3
F1- -1
loop_
_atom_site_label
_atom_site_type_symbol
_atom_site_symmetry_multiplicity
_atom_site_Wyckoff_symbol
_atom_site_fract_x
_atom_site_fract_y
_atom_site_fract_z
_atom_site_B_iso_or_equiv
_atom_site_occupancy
Fe1 Fe3+ 2 b 0 0 0 . 1.
F1 F1- 6 e -.164(3) 0.664(3) 0.25 . 1.
#End of TTdata_16671-ICSD