
#(C) 2020 by FIZ Karlsruhe - Leibniz Institute for Information Infrastructure.  All rights reserved.
data_240254-ICSD
_database_code_ICSD 240254
_audit_creation_date 2005-10-01
_chemical_name_common 'Iron potassium fluoride (80/42/60)'
_chemical_formula_structural 'F240 Fe80 K42'
_chemical_formula_sum 'F240 Fe80 K42'
_exptl_crystal_density_diffrn 3.51
_citation_title

;
Charge Order and Tilt Modulation in Multiferroic KxMIIxMIII1-xF3 (0.4 < x <
0.6) Transition Metal Fluorides with Tetragonal Tungsten Bronze Structure
;
loop_
_citation_id
_citation_journal_full
_citation_year
_citation_journal_volume
_citation_page_first
_citation_page_last
_citation_journal_id_ASTM
primary 'Chemistry of Materials' 2004 16 3007 3019 CMATEX
loop_
_citation_author_citation_id
_citation_author_name
primary 'Fabbrici, S.'
primary 'Montanari, E.'
primary 'Righi, L.'
primary 'Calestani, G.'
primary 'Migliori, A.'
_cell_length_a 35.730(3)
_cell_length_b 17.872(1)
_cell_length_c 7.9030(6)
_cell_angle_alpha 90.
_cell_angle_beta 90.
_cell_angle_gamma 90.
_cell_volume 5046.59
_cell_formula_units_Z 1
_space_group_name_H-M_alt 'B b m 2'
_space_group_IT_number 40
loop_
_space_group_symop_id
_space_group_symop_operation_xyz
1 '-x, y+1/2, z'
2 'x, -y+1/2, z'
3 '-x, -y, z'
4 'x, y, z'
5 '-x+1/2, y+1/2, z+1/2'
6 'x+1/2, -y+1/2, z+1/2'
7 '-x+1/2, -y, z+1/2'
8 'x+1/2, y, z+1/2'
loop_
_atom_type_symbol
_atom_type_oxidation_number
Fe2+ 2.48
K1+ 1
F1- -1
loop_
_atom_site_label
_atom_site_type_symbol
_atom_site_symmetry_multiplicity
_atom_site_Wyckoff_symbol
_atom_site_fract_x
_atom_site_fract_y
_atom_site_fract_z
_atom_site_U_iso_or_equiv
_atom_site_occupancy
Fe1 Fe2+ 8 c 0.42827(5) 0.06898(10) 0.2917(3) 0.0132(4) 1
Fe2 Fe2+ 8 c 0.17835(5) -0.06873(10) 0.2920(3) 0.0124(4) 1
Fe3 Fe2+ 8 c 0.32149(5) 0.06874(10) 0.2924(3) 0.0108(4) 1
Fe4 Fe2+ 8 c 0.07141(5) -0.06898(10) 0.2918(3) 0.0110(4) 1
Fe5 Fe2+ 8 c 0.21552(5) 0.14289(10) 0.2904(2) 0.0097(4) 1
Fe6 Fe2+ 8 c 0.03458(5) 0.14335(10) 0.2927(2) 0.0134(4) 1
Fe7 Fe2+ 8 c 0.46550(5) -0.14310(10) 0.2912(2) 0.0121(4) 1
Fe8 Fe2+ 8 c 0.28429(5) -0.14294(11) 0.2916(2) 0.0122(4) 1
Fe9 Fe2+ 4 b 0.12471(8) -0.25 0.2919(4) 0.0114(5) 1
Fe10 Fe2+ 4 b 0.37497(8) 0.25 0.2916(4) 0.0120(5) 1
Fe11 Fe2+ 4 b 0.37475(8) -0.25 0.2931(4) 0.0113(5) 1
Fe12 Fe2+ 4 b 0.12528(8) 0.25 0.2926(4) 0.0124(5) 1
K1 K1+ 4 a 0. 0. 0.0410(12) 0.0131(13) 0.580(7)
K2 K1+ 4 a 0.5 0. 0.0412(13) 0.0124(13) 0.569(7)
K3 K1+ 4 b 0.28759(8) 0.25 0.0388(9) 0.0339(9) 1
K4 K1+ 4 b 0.29009(8) 0.25 0.5406(10) 0.0440(10) 1
K5 K1+ 4 b 0.53869(9) -0.25 0.5394(10) 0.0395(9) 1
K6 K1+ 4 b -0.03852(9) 0.25 0.5417(10) 0.0419(9) 1
K7 K1+ 8 c 0.24999(5) 0.00007(11) 0.0414(11) 0.0221(11) 0.669(6)
K8 K1+ 8 c 0.37762(8) -0.07686(7) 0.5407(7) 0.0376(4) 1
K9 K1+ 8 c 0.12842(9) 0.07939(8) 0.5408(7) 0.0393(4) 1
F1 F1- 4 b 0.0148(3) 0.25 0.2775(17) 0.030(3) 1
F2 F1- 4 b 0.2360(3) 0.25 0.2984(16) 0.027(3) 1
F3 F1- 4 b 0.2665(3) -0.25 0.2758(16) 0.021(3) 1
F4 F1- 4 b 0.4835(3) -0.25 0.2977(16) 0.017(2) 1
F5 F1- 8 c 0.1970(2) 0.0361(4) 0.2733(12) 0.032(2) 1
F6 F1- 8 c 0.0534(2) 0.0360(5) 0.3024(13) 0.034(2) 1
F7 F1- 8 c 0.2677(2) 0.1061(4) 0.2969(12) 0.026(2) 1
F8 F1- 8 c 0.4460(2) -0.0369(4) 0.2739(12) 0.027(2) 1
F9 F1- 8 c 0.4809(2) 0.1074(5) 0.3041(12) 0.030(2) 1
F10 F1- 8 c 0.0188(2) -0.1065(5) 0.2729(12) 0.029(2) 1
F11 F1- 8 c 0.3023(2) -0.0366(4) 0.2960(12) 0.030(2) 1
F12 F1- 8 c 0.2327(2) -0.1075(5) 0.2709(12) 0.034(2) 1
F13 F1- 8 c 0.1254(2) -0.0301(3) 0.2979(13) 0.023(2) 1
F14 F1- 8 c 0.3752(2) 0.0313(4) 0.2791(12) 0.024(2) 1
F15 F1- 8 c 0.0891(2) 0.1664(5) 0.3076(12) 0.031(2) 1
F16 F1- 8 c 0.3382(2) -0.1712(5) 0.3099(13) 0.031(2) 1
F17 F1- 8 c 0.1624(2) 0.1697(5) 0.2728(13) 0.031(2) 1
F18 F1- 8 c 0.4119(2) -0.1695(4) 0.2698(12) 0.032(2) 1
F19 F1- 8 c 0.4158(2) 0.1771(4) 0.3005(11) 0.024(2) 1
F20 F1- 8 c 0.1658(2) -0.1760(5) 0.3000(14) 0.039(2) 1
F21 F1- 8 c 0.3348(2) 0.1750(4) 0.2707(13) 0.032(2) 1
F22 F1- 8 c 0.0855(2) -0.1759(5) 0.2721(12) 0.038(3) 1
F23 F1- 8 c 0.47223(12) -0.1479(2) 0.0387(14) 0.0257(12) 1
F24 F1- 8 c 0.22177(13) 0.1453(3) 0.0350(15) 0.0316(13) 1
F25 F1- 8 c 0.31905(13) 0.0612(3) 0.0373(15) 0.0318(14) 1
F26 F1- 8 c 0.43098(13) 0.0774(3) 0.0372(15) 0.0319(13) 1
F27 F1- 4 b 0.3795(2) 0.25 0.0374(22) 0.043(2) 1
F28 F1- 4 b 0.1201(2) 0.25 0.0320(22) 0.045(2) 1
F29 F1- 8 c 0.32484(14) 0.0697(3) 0.5347(15) 0.037(2) 1
F30 F1- 8 c 0.42701(13) 0.0576(3) 0.5341(15) 0.0281(13) 1
F31 F1- 8 c 0.21149(13) 0.1375(2) 0.5369(14) 0.0288(13) 1
F32 F1- 8 c 0.46147(14) -0.1395(3) 0.5307(16) 0.0349(15) 1
F33 F1- 4 b 0.3692(2) 0.25 0.5429(21) 0.034(2) 1
F34 F1- 4 b 0.13200(13) 0.25 0.5378(19) 0.0267(14) 1
loop_
_atom_site_aniso_label
_atom_site_aniso_type_symbol
_atom_site_aniso_U_11
_atom_site_aniso_U_22
_atom_site_aniso_U_33
_atom_site_aniso_U_12
_atom_site_aniso_U_13
_atom_site_aniso_U_23
Fe1 Fe2+ 0.0154(9) 0.0101(9) 0.0141(11) 0.0035(7) 0.0034(10) 0.0006(11)
Fe2 Fe2+ 0.0142(9) 0.0101(9) 0.0131(10) 0.0026(7) -0.0005(10) 0.0010(11)
Fe3 Fe2+ 0.0150(9) 0.0066(9) 0.0107(9) -0.0001(6) 0.0006(10) -0.0004(10)
Fe4 Fe2+ 0.0090(8) 0.0111(9) 0.0130(10) -0.0031(6) -0.0024(9) -0.0009(11)
Fe5 Fe2+ 0.0118(8) 0.0093(9) 0.0079(10) -0.0019(7) 0.0003(10) 0.0021(9)
Fe6 Fe2+ 0.0169(9) 0.0085(9) 0.0147(11) 0.0006(7) -0.0001(11) -0.0025(9)
Fe7 Fe2+ 0.0143(9) 0.0076(9) 0.0145(11) -0.0014(7) -0.0001(11) 0.0022(9)
Fe8 Fe2+ 0.0086(8) 0.0138(10) 0.0143(11) -0.0009(7) -0.0009(10) -0.0029(10)
Fe9 Fe2+ 0.0147(11) 0.0059(11) 0.0136(11) 0. 0.0035(13) 0.
Fe10 Fe2+ 0.0108(10) 0.0125(11) 0.0127(11) 0. -0.0033(13) 0.
Fe11 Fe2+ 0.0142(11) 0.0060(11) 0.0137(11) 0. -0.0004(14) 0.
Fe12 Fe2+ 0.0113(10) 0.0127(12) 0.0132(11) 0. 0.0004(13) 0.
K1 K1+ 0.014(2) 0.019(3) 0.007(2) 0.003(2) 0. 0.
K2 K1+ 0.009(2) 0.018(3) 0.010(3) 0.000(2) 0. 0.
K3 K1+ 0.0212(14) 0.057(2) 0.024(2) 0. 0.003(3) 0.
K4 K1+ 0.0178(14) 0.088(3) 0.026(2) 0. -0.004(3) 0.
K5 K1+ 0.031(2) 0.069(2) 0.018(2) 0. -0.001(3) 0.
K6 K1+ 0.032(2) 0.071(2) 0.022(2) 0. 0.005(3) 0.
K7 K1+ 0.023(2) 0.011(2) 0.032(3) 0.0005(13) -0.008(2) -0.003(2)
K8 K1+ 0.0661(11) 0.0227(8) 0.0238(8) -0.0133(13) 0.002(3) 0.000(2)
K9 K1+ 0.0743(13) 0.0216(8) 0.0221(8) -0.0031(12) -0.004(3) -0.002(2)
F1 F1- 0.029(6) 0.031(7) 0.030(8) 0. -0.004(6) 0.
F2 F1- 0.023(6) 0.046(7) 0.012(5) 0. -0.002(5) 0.
F3 F1- 0.012(5) 0.009(5) 0.043(8) 0. -0.002(5) 0.
F4 F1- 0.024(5) 0.001(4) 0.027(6) 0. -0.004(6) 0.
F5 F1- 0.031(4) 0.020(4) 0.044(6) -0.019(3) 0.006(4) 0.002(4)
F6 F1- 0.042(5) 0.027(5) 0.032(5) 0.007(4) -0.002(5) -0.006(5)
F7 F1- 0.022(4) 0.018(4) 0.038(5) 0.002(3) 0.004(4) 0.003(4)
F8 F1- 0.019(4) 0.010(4) 0.052(6) 0.012(3) 0.001(5) 0.004(4)
F9 F1- 0.031(4) 0.038(5) 0.023(4) 0.002(4) 0.001(5) -0.001(5)
F10 F1- 0.006(3) 0.031(5) 0.050(6) -0.011(3) -0.001(4) 0.006(5)
F11 F1- 0.035(4) 0.023(5) 0.033(5) 0.009(3) 0.002(4) -0.007(4)
F12 F1- 0.030(4) 0.024(5) 0.047(7) 0.018(3) -0.002(4) -0.001(4)
F13 F1- 0.037(4) 0.016(3) 0.018(3) 0.003(4) -0.005(4) -0.002(4)
F14 F1- 0.012(3) 0.026(4) 0.034(5) -0.007(4) 0.002(4) -0.006(4)
F15 F1- 0.032(4) 0.032(4) 0.029(4) -0.021(3) -0.013(4) 0.020(4)
F16 F1- 0.029(4) 0.028(4) 0.036(5) 0.005(3) -0.006(5) 0.001(5)
F17 F1- 0.020(4) 0.027(5) 0.047(6) 0.017(4) 0.001(5) 0.000(5)
F18 F1- 0.024(4) 0.012(4) 0.061(7) 0.001(3) -0.002(5) -0.001(4)
F19 F1- 0.033(4) 0.012(4) 0.026(4) 0.013(3) -0.015(4) 0.001(4)
F20 F1- 0.029(5) 0.040(5) 0.046(6) -0.002(4) -0.001(5) 0.011(5)
F21 F1- 0.022(4) 0.017(4) 0.056(6) -0.007(3) -0.006(5) -0.002(4)
F22 F1- 0.034(4) 0.013(4) 0.066(7) 0.016(3) 0.004(5) -0.013(5)
F23 F1- 0.042(3) 0.026(3) 0.008(3) 0.006(2) -0.002(5) -0.008(5)
F24 F1- 0.052(3) 0.030(3) 0.012(3) 0.014(2) 0.004(6) -0.001(5)
F25 F1- 0.033(3) 0.058(3) 0.005(3) -0.014(2) -0.004(5) -0.007(5)
F26 F1- 0.038(3) 0.038(3) 0.020(3) 0.008(2) -0.001(5) 0.018(5)
F27 F1- 0.051(4) 0.055(4) 0.021(3) 0. 0.019(8) 0.
F28 F1- 0.077(5) 0.046(3) 0.011(3) 0. 0.001(8) 0.
F29 F1- 0.040(3) 0.068(4) 0.004(3) -0.002(2) -0.006(5) -0.014(5)
F30 F1- 0.026(2) 0.037(3) 0.022(3) 0.004(2) -0.005(5) -0.013(5)
F31 F1- 0.048(3) 0.023(3) 0.015(3) 0.003(2) -0.013(5) -0.008(5)
F32 F1- 0.055(3) 0.038(3) 0.011(3) -0.010(2) 0.003(5) -0.007(5)
F33 F1- 0.039(4) 0.051(3) 0.013(3) 0. -0.010(8) 0.
F34 F1- 0.012(3) 0.046(3) 0.021(3) 0. 0.015(7) 0.
#End of TTdata_240254-ICSD