
#(C) 2020 by FIZ Karlsruhe - Leibniz Institute for Information Infrastructure.  All rights reserved.
data_192506-ICSD
_database_code_ICSD 192506
_audit_creation_date 2015-02-01
_chemical_name_common 'Dipotassium iron pentafluoride'
_chemical_formula_structural 'K2 Fe F5'
_chemical_formula_sum 'F5 Fe1 K2'
_exptl_crystal_density_diffrn 3.15
_diffrn_ambient_temperature 293.
_citation_title 'On two new K2 Fe F5 forms'
loop_
_citation_id
_citation_journal_full
_citation_year
_citation_journal_volume
_citation_page_first
_citation_page_last
_citation_journal_id_ASTM
primary 'Powder Diffraction' 2014 29 33 41 PODIE2
loop_
_citation_author_citation_id
_citation_author_name
primary 'Le Bail, Armel'
_cell_length_a 13.0919(2)
_cell_length_b 5.7311(1)
_cell_length_c 7.3114(1)
_cell_angle_alpha 90.
_cell_angle_beta 118.241(1)
_cell_angle_gamma 90.
_cell_volume 483.28
_cell_formula_units_Z 4
_space_group_name_H-M_alt 'C 1 2/m 1'
_space_group_IT_number 12
loop_
_space_group_symop_id
_space_group_symop_operation_xyz
1 '-x, y, -z'
2 '-x, -y, -z'
3 'x, -y, z'
4 'x, y, z'
5 '-x+1/2, y+1/2, -z'
6 '-x+1/2, -y+1/2, -z'
7 'x+1/2, -y+1/2, z'
8 'x+1/2, y+1/2, z'
loop_
_atom_type_symbol
_atom_type_oxidation_number
K1+ 1
Fe3+ 3
F1- -1
loop_
_atom_site_label
_atom_site_type_symbol
_atom_site_symmetry_multiplicity
_atom_site_Wyckoff_symbol
_atom_site_fract_x
_atom_site_fract_y
_atom_site_fract_z
_atom_site_B_iso_or_equiv
_atom_site_occupancy
K1 K1+ 4 i 0.4773(2) 0 0.7516(4) 1.33(6) 1.
K2 K1+ 4 i 0.1661(3) 0 0.7697(5) 1.32(7) 1.
Fe1 Fe3+ 4 i 0.1876(2) 0 0.2811(3) 1.05(5) 1.
F1 F1- 4 f 0.25 0.25 0.5 1.72(15) 1.
F2 F1- 4 i 0.0571(5) 0 0.3277(8) 1.51(16) 1.
F3 F1- 4 i 0.3397(5) 0 0.3069(8) 1.90(18) 1.
F4 F1- 8 j 0.1404(4) 0.2368(7) 0.0904(7) 1.93(12) 1.
#End of TTdata_192506-ICSD