
#(C) 2020 by FIZ Karlsruhe - Leibniz Institute for Information Infrastructure.  All rights reserved.
data_237470-ICSD
_database_code_ICSD 237470
_audit_creation_date 2015-02-01
_chemical_name_common 'Potassium iron fluoride (3/6/19)'
_chemical_formula_structural 'K3 Fe6 F19'
_chemical_formula_sum 'F19 Fe6 K3'
_exptl_crystal_density_diffrn 3.48
_diffrn_ambient_temperature 294.
_citation_title

;
Triangular exchange interaction patterns in K3 Fe6 F19: An iron potassium
fluoride with a complex tungsten bronze related structure
;
loop_
_citation_id
_citation_journal_full
_citation_year
_citation_journal_volume
_citation_page_first
_citation_page_last
_citation_journal_id_ASTM
primary 'Inorganic Chemistry' 2013 52 12599 12604 INOCAJ
loop_
_citation_author_citation_id
_citation_author_name
primary 'Mezzadri, Francesco'
primary 'Calestani, Gianluca'
primary 'Righi, Lara'
primary 'Pernechele, Chiara'
primary 'Solzi, Massimo'
primary 'Ritter, Clemens'
_cell_length_a 7.6975(3)
_cell_length_b 18.2843(7)
_cell_length_c 22.0603(9)
_cell_angle_alpha 90.
_cell_angle_beta 90.
_cell_angle_gamma 90.
_cell_volume 3104.84
_cell_formula_units_Z 8
_space_group_name_H-M_alt 'C m c m'
_space_group_IT_number 63
loop_
_space_group_symop_id
_space_group_symop_operation_xyz
1 '-x, y, -z+1/2'
2 '-x, -y, z+1/2'
3 '-x, y, z'
4 '-x, -y, -z'
5 'x, -y, z+1/2'
6 'x, y, -z+1/2'
7 'x, -y, -z'
8 'x, y, z'
9 '-x+1/2, y+1/2, -z+1/2'
10 '-x+1/2, -y+1/2, z+1/2'
11 '-x+1/2, y+1/2, z'
12 '-x+1/2, -y+1/2, -z'
13 'x+1/2, -y+1/2, z+1/2'
14 'x+1/2, y+1/2, -z+1/2'
15 'x+1/2, -y+1/2, -z'
16 'x+1/2, y+1/2, z'
loop_
_atom_type_symbol
_atom_type_oxidation_number
Fe2+ 2.67
K1+ 1
F1- -1
loop_
_atom_site_label
_atom_site_type_symbol
_atom_site_symmetry_multiplicity
_atom_site_Wyckoff_symbol
_atom_site_fract_x
_atom_site_fract_y
_atom_site_fract_z
_atom_site_U_iso_or_equiv
_atom_site_occupancy
Fe1 Fe2+ 8 d 0.25 0.25 0.5 0.00908(13) 1
Fe2 Fe2+ 8 g 0.24964(6) 0.53677(3) 0.75 0.00940(13) 1
Fe3 Fe2+ 16 h 0.25000(4) 0.21219(2) 0.665236(17) 0.00958(11) 1
Fe4 Fe2+ 16 h 0.25098(4) 0.40998(2) 0.608532(17) 0.00957(11) 1
K1 K1+ 4 c 0. 0.36425(8) 0.75 0.0246(3) 1
K2 K1+ 4 c 0.5 0.35692(9) 0.75 0.0330(3) 1
K3 K1+ 8 f 0. 0.09784(6) 0.55023(7) 0.0402(3) 1
K4 K1+ 8 f 0.5 0.08485(6) 0.56440(9) 0.0595(5) 1
F1 F1- 16 h 0.2723(2) 0.49786(11) 0.56854(10) 0.0298(5) 1
F2 F1- 16 h 0.2315(2) 0.35626(11) 0.53447(8) 0.0247(4) 1
F3 F1- 8 f 0. 0.19798(15) 0.65501(12) 0.0268(6) 1
F4 F1- 8 f 0.5 0.22964(14) 0.67601(12) 0.0246(6) 1
F5 F1- 16 h 0.2204(2) 0.31869(10) 0.65352(9) 0.0256(4) 1
F6 F1- 8 g 0.2141(3) 0.23732(15) 0.75 0.0225(5) 1
F7 F1- 8 f 0. 0.23738(14) 0.50641(11) 0.0233(6) 1
F8 F1- 16 h 0.2709(2) 0.45343(11) 0.68902(9) 0.0243(4) 1
F9 F1- 16 h 0.2784(2) 0.19458(10) 0.58075(8) 0.0219(4) 1
F10 F1- 8 f 0. 0.42413(14) 0.61329(13) 0.0263(6) 1
F11 F1- 4 c 0.5 0.5466(2) 0.75 0.0271(8) 1
F12 F1- 16 h 0.2792(2) 0.10945(11) 0.68375(10) 0.0263(4) 1
F13 F1- 4 c 0. 0.5169(2) 0.75 0.0246(8) 1
F14 F1- 8 f 0.5 0.39320(15) 0.60937(13) 0.0307(6) 1
loop_
_atom_site_aniso_label
_atom_site_aniso_type_symbol
_atom_site_aniso_U_11
_atom_site_aniso_U_22
_atom_site_aniso_U_33
_atom_site_aniso_U_12
_atom_site_aniso_U_13
_atom_site_aniso_U_23
Fe1 Fe2+ 0.0062(2) 0.0093(2) 0.0117(2) -0.00066(17) 0.00057(18) -0.00069(18)
Fe2 Fe2+ 0.0076(2) 0.0084(3) 0.0122(3) -0.00036(17) 0. 0.
Fe3 Fe2+ 0.00859(19) 0.00987(19) 0.01028(19) -0.00001(12) -0.00002(13)
-0.00006(13)
Fe4 Fe2+ 0.00772(19) 0.0104(2) 0.01053(19) -0.00020(12) 0.00025(12) -0.00036(13)
K1 K1+ 0.0225(6) 0.0251(7) 0.0261(7) 0. 0. 0.
K2 K1+ 0.0313(8) 0.0324(8) 0.0352(8) 0. 0. 0.
K3 K1+ 0.0197(5) 0.0205(5) 0.0803(9) 0. 0. 0.0108(5)
K4 K1+ 0.0155(5) 0.0235(6) 0.1396(16) 0. 0. -0.0031(7)
F1 F1- 0.0349(11) 0.0207(10) 0.0337(11) -0.0045(7) 0.0030(8) 0.0114(8)
F2 F1- 0.0299(10) 0.0273(10) 0.0168(9) 0.0010(7) -0.0011(7) -0.0084(8)
F3 F1- 0.0126(12) 0.0373(15) 0.0304(14) 0. 0. -0.0004(12)
F4 F1- 0.0140(12) 0.0283(14) 0.0314(14) 0. 0. 0.0015(12)
F5 F1- 0.0332(11) 0.0148(8) 0.0289(10) 0.0030(7) 0.0035(8) 0.0072(7)
F6 F1- 0.0295(13) 0.0259(13) 0.0120(11) 0.0053(11) 0. 0.
F7 F1- 0.0115(11) 0.0281(14) 0.0303(15) 0. 0. 0.0018(11)
F8 F1- 0.0294(10) 0.0263(10) 0.0172(9) 0.0023(7) -0.0015(7) -0.0076(8)
F9 F1- 0.0250(9) 0.0243(9) 0.0165(8) 0.0019(7) 0.0008(6) -0.0026(7)
F10 F1- 0.0084(11) 0.0292(14) 0.0414(16) 0. 0. -0.0040(12)
F11 F1- 0.0137(16) 0.034(2) 0.034(2) 0. 0. 0.
F12 F1- 0.0330(10) 0.0173(9) 0.0285(10) 0.0010(7) 0.0017(8) 0.0024(8)
F13 F1- 0.0137(16) 0.0271(19) 0.033(2) 0. 0. 0.
F14 F1- 0.0102(12) 0.0370(15) 0.0449(17) 0. 0. -0.0064(13)
#End of TTdata_237470-ICSD