
#(C) 2020 by FIZ Karlsruhe - Leibniz Institute for Information Infrastructure.  All rights reserved.
data_60615-ICSD
_database_code_ICSD 60615
_audit_creation_date 1986-12-03
_audit_update_record 2003-04-01
_chemical_name_common 'Potassium tetrafluoroferrate(III) - phase II, HT'
_chemical_formula_structural 'K (Fe F4)'
_chemical_formula_sum 'F4 Fe1 K1'
_exptl_crystal_density_diffrn 3.04
_diffrn_ambient_temperature 415.
_citation_title
'Structures cristallines a 415 K (phase II) et 295 K (phase III) de K Fe F4'
loop_
_citation_id
_citation_journal_full
_citation_year
_citation_journal_volume
_citation_page_first
_citation_page_last
_citation_journal_id_ASTM
primary 'Acta Crystallographica, Section B: Structural Science' 1986 42 258 262
ASBSDK
loop_
_citation_author_citation_id
_citation_author_name
primary 'Lapasset, J.'
primary 'Sciau, P.'
primary 'Moret, J.'
primary 'Gros, N.'
_cell_length_a 3.92(1)
_cell_length_b 12.39(2)
_cell_length_c 7.68(1)
_cell_angle_alpha 90.
_cell_angle_beta 90.
_cell_angle_gamma 90.
_cell_volume 373.01
_cell_formula_units_Z 4
_space_group_name_H-M_alt 'C m c m'
_space_group_IT_number 63
loop_
_space_group_symop_id
_space_group_symop_operation_xyz
1 '-x, y, -z+1/2'
2 '-x, -y, z+1/2'
3 '-x, y, z'
4 '-x, -y, -z'
5 'x, -y, z+1/2'
6 'x, y, -z+1/2'
7 'x, -y, -z'
8 'x, y, z'
9 '-x+1/2, y+1/2, -z+1/2'
10 '-x+1/2, -y+1/2, z+1/2'
11 '-x+1/2, y+1/2, z'
12 '-x+1/2, -y+1/2, -z'
13 'x+1/2, -y+1/2, z+1/2'
14 'x+1/2, y+1/2, -z+1/2'
15 'x+1/2, -y+1/2, -z'
16 'x+1/2, y+1/2, z'
loop_
_atom_type_symbol
_atom_type_oxidation_number
K1+ 1
Fe3+ 3
F1- -1
loop_
_atom_site_label
_atom_site_type_symbol
_atom_site_symmetry_multiplicity
_atom_site_Wyckoff_symbol
_atom_site_fract_x
_atom_site_fract_y
_atom_site_fract_z
_atom_site_B_iso_or_equiv
_atom_site_occupancy
K1 K1+ 4 c 0 0.72852(9) 0.25 . 1.
Fe1 Fe3+ 4 a 0 0 0 . 1.
F1 F1- 4 b 0 0.5 0 . 1.
F2 F1- 4 c 0 0.9659(3) 0.25 . 1.
F3 F1- 8 f 0 0.1488(2) 0.0463(3) . 1.
#End of TTdata_60615-ICSD