
#(C) 2020 by FIZ Karlsruhe - Leibniz Institute for Information Infrastructure.  All rights reserved.
data_107512-ICSD
_database_code_ICSD 107512
_audit_creation_date 2013-08-01
_audit_update_record 2019-02-01
_chemical_name_common 'Potassium iron fluoride (0.25/1/3) - alpha'
_chemical_formula_structural 'K0.25 Fe F3'
_chemical_formula_sum 'F3 Fe1 K0.25'
_chemical_name_structure_type TlxWO3
_exptl_crystal_density_diffrn 3.44
_citation_title
'Une serie de composes fluores de type bronze: Kx Fe(3+)1-x Fe(2+)x F3'
_publ_section_comment 'Cell and Type only determined'
loop_
_citation_id
_citation_journal_full
_citation_year
_citation_journal_volume
_citation_page_first
_citation_page_last
_citation_journal_id_ASTM
primary 'Comptes Rendus Hebdomadaires des Seances de l'Academie des Sciences'
1965 260 4527 4530 COREAF
loop_
_citation_author_citation_id
_citation_author_name
primary 'de Pape, R.'
_cell_length_a 7.385(5)
_cell_length_b 7.385(5)
_cell_length_c 7.510(7)
_cell_angle_alpha 90.
_cell_angle_beta 90.
_cell_angle_gamma 120.
_cell_volume 354.71
_cell_formula_units_Z 6
_space_group_name_H-M_alt 'P 63/m c m'
_space_group_IT_number 193
loop_
_space_group_symop_id
_space_group_symop_operation_xyz
1 '-x, -x+y, -z+1/2'
2 'x-y, -y, -z+1/2'
3 'y, x, -z+1/2'
4 '-x+y, -x, -z+1/2'
5 '-y, x-y, -z+1/2'
6 'x, y, -z+1/2'
7 'x, x-y, z+1/2'
8 '-x+y, y, z+1/2'
9 '-y, -x, z+1/2'
10 'x-y, x, z+1/2'
11 'y, -x+y, z+1/2'
12 '-x, -y, z+1/2'
13 'x, x-y, -z'
14 '-x+y, y, -z'
15 '-y, -x, -z'
16 'x-y, x, -z'
17 'y, -x+y, -z'
18 '-x, -y, -z'
19 '-x, -x+y, z'
20 'x-y, -y, z'
21 'y, x, z'
22 '-x+y, -x, z'
23 '-y, x-y, z'
24 'x, y, z'
loop_
_atom_type_symbol
_atom_type_oxidation_number
Fe2+ 2.75
F1- -1
K1+ 1
loop_
_atom_site_label
_atom_site_type_symbol
_atom_site_symmetry_multiplicity
_atom_site_Wyckoff_symbol
_atom_site_fract_x
_atom_site_fract_y
_atom_site_fract_z
_atom_site_B_iso_or_equiv
_atom_site_occupancy
Fe1 Fe2+ 6 g 0.493 0 0.25 . 1.
F1 F1- 12 j 0.43 0.2 0.25 . 1.
F2 F1- 12 k 0.535 0 0 . .5
K1 K1+ 4 e 0 0 0.046 . 0.375
#End of TTdata_107512-ICSD