
#(C) 2020 by FIZ Karlsruhe - Leibniz Institute for Information Infrastructure.  All rights reserved.
data_107513-ICSD
_database_code_ICSD 107513
_audit_creation_date 2013-08-01
_audit_update_record 2019-02-01
_chemical_name_common 'Potassium iron fluoride (0.5/1/3) - beta'
_chemical_formula_structural 'K0.50 Fe F3'
_chemical_formula_sum 'F3 Fe1 K0.5'
_exptl_crystal_density_diffrn 3.52
_citation_title
'Une serie de composes fluores de type bronze: Kx Fe(3+)1-x Fe(2+)x F3'
_publ_section_comment 'Cell and Type only determined'
loop_
_citation_id
_citation_journal_full
_citation_year
_citation_journal_volume
_citation_page_first
_citation_page_last
_citation_journal_id_ASTM
primary 'Comptes Rendus Hebdomadaires des Seances de l'Academie des Sciences'
1965 260 4527 4530 COREAF
loop_
_citation_author_citation_id
_citation_author_name
primary 'de Pape, R.'
_cell_length_a 12.60(1)
_cell_length_b 12.60(1)
_cell_length_c 3.936(4)
_cell_angle_alpha 90.
_cell_angle_beta 90.
_cell_angle_gamma 90.
_cell_volume 624.88
_cell_formula_units_Z 10
_space_group_name_H-M_alt 'P 4/m b m'
_space_group_IT_number 127
loop_
_space_group_symop_id
_space_group_symop_operation_xyz
1 'y+1/2, x+1/2, -z'
2 '-y+1/2, -x+1/2, -z'
3 '-y, x, -z'
4 'y, -x, -z'
5 'x+1/2, -y+1/2, -z'
6 '-x+1/2, y+1/2, -z'
7 'x, y, -z'
8 '-x, -y, -z'
9 '-y+1/2, -x+1/2, z'
10 'y+1/2, x+1/2, z'
11 'y, -x, z'
12 '-y, x, z'
13 '-x+1/2, y+1/2, z'
14 'x+1/2, -y+1/2, z'
15 '-x, -y, z'
16 'x, y, z'
loop_
_atom_type_symbol
_atom_type_oxidation_number
Fe2+ 2.5
F1- -1
K1+ 1
loop_
_atom_site_label
_atom_site_type_symbol
_atom_site_symmetry_multiplicity
_atom_site_Wyckoff_symbol
_atom_site_fract_x
_atom_site_fract_y
_atom_site_fract_z
_atom_site_B_iso_or_equiv
_atom_site_occupancy
Fe1 Fe2+ 2 c 0 0.5 0.5 . 1.
Fe2 Fe2+ 8 j 0.076 0.207 0.5 . 1.
F1 F1- 2 d 0 0.5 0 . 1.
F2 F1- 8 i 0.076 0.206 0 . 1.
F3 F1- 8 j 0.289 0.289 0.5 . .5
F4 F1- 8 j 0 0.345 0.5 . 1.
F5 F1- 8 j 0.143 0.069 0.5 . 1.
K1 K1+ 2 a 0 0 0 . .5
K2 K1+ 4 g 0.172 0.672 0 . 1.
#End of TTdata_107513-ICSD