
#(C) 2020 by FIZ Karlsruhe - Leibniz Institute for Information Infrastructure.  All rights reserved.
data_162249-ICSD
_database_code_ICSD 162249
_audit_creation_date 2009-08-01
_chemical_name_common 'Potassium iron iron(III) fluoride (0.59/0.59/0.41/3)'
_chemical_formula_structural 'K0.59 (Fe F3)'
_chemical_formula_sum 'F3 Fe1 K0.59'
_exptl_crystal_density_diffrn 3.51
_diffrn_ambient_temperature 293.
_citation_title

;
Structural properties and multiferroic phase diagram of K0.6 Fe(II)0.6
Fe(III)0.4 F3 fluoride with TTB structure
;
loop_
_citation_id
_citation_journal_full
_citation_year
_citation_journal_volume
_citation_page_first
_citation_page_last
_citation_journal_id_ASTM
primary 'Physical Review B: Condensed Matter and Materials Physics' 2008 78 1 6
PRBMDO
loop_
_citation_author_citation_id
_citation_author_name
primary 'Mezzadri, F.'
primary 'Fabbrici, S.'
primary 'Montanari, E.'
primary 'Righi, L.'
primary 'Calestani, G.'
primary 'Gilioli, E.'
primary 'Bolzoni, F.'
primary 'Migliori, A.'
_cell_length_a 12.7512(10)
_cell_length_b 12.6600(10)
_cell_length_c 7.9750(10)
_cell_angle_alpha 90.
_cell_angle_beta 90.
_cell_angle_gamma 90.
_cell_volume 1287.41
_cell_formula_units_Z 20
_space_group_name_H-M_alt 'P b a 2'
_space_group_IT_number 32
loop_
_space_group_symop_id
_space_group_symop_operation_xyz
1 'x+1/2, -y+1/2, z'
2 '-x+1/2, y+1/2, z'
3 '-x, -y, z'
4 'x, y, z'
loop_
_atom_type_symbol
_atom_type_oxidation_number
Fe2+ 2
Fe3+ 3
Fe2+ 2
Fe2+ 2.5
Fe3+ 3
Fe2+ 2
K1+ 1
F1- -1
loop_
_atom_site_label
_atom_site_type_symbol
_atom_site_symmetry_multiplicity
_atom_site_Wyckoff_symbol
_atom_site_fract_x
_atom_site_fract_y
_atom_site_fract_z
_atom_site_U_iso_or_equiv
_atom_site_occupancy
Fe1 Fe2+ 2 b 0.5 0 0.2510(3) 0.0139(2) 1.
Fe2 Fe3+ 2 b 0.5 0 0.7502(3) 0.0139(2) 1.
Fe3 Fe2+ 4 c 0.4247(1) 0.2844(1) 0.2508(3) 0.0139(2) 1.
Fe4 Fe2+ 4 c 0.4228(1) 0.2875(1) 0.7505(3) 0.0138(2) 1.
Fe5 Fe3+ 4 c 0.2120(1) 0.0753(1) 0.2513(3) 0.0135(2) 1.
Fe6 Fe2+ 4 c 0.2141(1) 0.0771(1) 0.7510(3) 0.0137(2) 1.
K1 K1+ 2 a 0.5 0.5 -0.0010(6) 0.0219(8) 0.966(6)
K2 K1+ 2 a 0 0 0.5035(6) 0.0200(8) 0.960(6)
K3 K1+ 4 c 0.6719(2) 0.1704(2) 0.9996(7) 0.0511(9) 1.
K4 K1+ 4 c 0.1714(2) 0.3309(2) 0.4974(7) 0.0550(10) 1.
F1 F1- 2 b 0.5 0 0.5077(18) 0.0390(19) 1.
F2 F1- 2 b 0.5 0 -0.0091(16) 0.0377(20) 1.
F3 F1- 4 c 0.4207(3) 0.2946(4) -0.0060(13) 0.0302(12) 1.
F4 F1- 4 c 0.4225(3) 0.2925(4) 0.5004(13) 0.0341(12) 1.
F5 F1- 4 c 0.2046(3) 0.0758(4) 0.0053(13) 0.0356(14) 1.
F6 F1- 4 c 0.2088(3) 0.0772(4) 0.4898(12) 0.0353(14) 1.
F7 F1- 4 c 0.2739(2) 0.2158(2) 0.2483(13) 0.0255(6) 1.
F8 F1- 4 c 0.2787(2) 0.2243(2) 0.7464(13) 0.0266(7) 1.
F9 F1- 4 c 0.3407(2) -0.0014(2) 0.2528(15) 0.0371(8) 1.
F10 F1- 4 c 0.3481(2) -0.0091(2) 0.7480(14) 0.0320(7) 1.
F11 F1- 4 c 0.5151(2) 0.1546(2) 0.2516(15) 0.0299(6) 1.
F12 F1- 4 c 0.5028(2) 0.1530(2) 0.7489(27) 0.0322(7) 1.
F13 F1- 4 c 0.3564(2) 0.4344(2) 0.2472(15) 0.0272(6) 1.
F14 F1- 4 c 0.1402(2) -0.0679(2) 0.7479(16) 0.0290(7) 1.
F15 F1- 4 c 0.5711(2) 0.3650(2) 0.2494(15) 0.0292(6) 1.
F16 F1- 4 c 0.0659(2) 0.1438(2) 0.7504(15) 0.0316(7) 1.
#End of TTdata_162249-ICSD