
#(C) 2020 by FIZ Karlsruhe - Leibniz Institute for Information Infrastructure.  All rights reserved.
data_251823-ICSD
_database_code_ICSD 251823
_audit_creation_date 2016-02-01
_chemical_name_common 'Potassium iron fluoride (4/3/12)'
_chemical_formula_structural 'K4 Fe3 F12'
_chemical_formula_sum 'F12 Fe3 K4'
_chemical_name_structure_type Ba4Re2CoO12
_exptl_crystal_density_diffrn 3.4
_diffrn_ambient_temperature 296.
_citation_title

;
K4Fe3F12: an Fe2+/Fe3+ charge-ordered, ferrimagnetic fluoride with a
cation-deficient, layered perovskite structure
;
loop_
_citation_id
_citation_journal_full
_citation_year
_citation_journal_volume
_citation_page_first
_citation_page_last
_citation_journal_id_ASTM
primary 'Inorganic Chemistry' 2015 54 6647 6652 INOCAJ
loop_
_citation_author_citation_id
_citation_author_name
primary 'Kim, Sun Woo'
primary 'Zhang, Ronghuan'
primary 'Halasyamani, P. Shiv'
primary 'Hayward, Michael A.'
_cell_length_a 5.7649(9)
_cell_length_b 5.7649(9)
_cell_length_c 28.086(9)
_cell_angle_alpha 90.
_cell_angle_beta 90.
_cell_angle_gamma 120.
_cell_volume 808.35
_cell_formula_units_Z 3
_space_group_name_H-M_alt 'R -3 m H'
_space_group_IT_number 166
loop_
_space_group_symop_id
_space_group_symop_operation_xyz
1 'x-y, -y, -z'
2 '-x, -x+y, -z'
3 'y, x, -z'
4 'x-y, x, -z'
5 'y, -x+y, -z'
6 '-x, -y, -z'
7 '-x+y, y, z'
8 'x, x-y, z'
9 '-y, -x, z'
10 '-x+y, -x, z'
11 '-y, x-y, z'
12 'x, y, z'
13 'x-y+2/3, -y+1/3, -z+1/3'
14 '-x+2/3, -x+y+1/3, -z+1/3'
15 'y+2/3, x+1/3, -z+1/3'
16 'x-y+2/3, x+1/3, -z+1/3'
17 'y+2/3, -x+y+1/3, -z+1/3'
18 '-x+2/3, -y+1/3, -z+1/3'
19 '-x+y+2/3, y+1/3, z+1/3'
20 'x+2/3, x-y+1/3, z+1/3'
21 '-y+2/3, -x+1/3, z+1/3'
22 '-x+y+2/3, -x+1/3, z+1/3'
23 '-y+2/3, x-y+1/3, z+1/3'
24 'x+2/3, y+1/3, z+1/3'
25 'x-y+1/3, -y+2/3, -z+2/3'
26 '-x+1/3, -x+y+2/3, -z+2/3'
27 'y+1/3, x+2/3, -z+2/3'
28 'x-y+1/3, x+2/3, -z+2/3'
29 'y+1/3, -x+y+2/3, -z+2/3'
30 '-x+1/3, -y+2/3, -z+2/3'
31 '-x+y+1/3, y+2/3, z+2/3'
32 'x+1/3, x-y+2/3, z+2/3'
33 '-y+1/3, -x+2/3, z+2/3'
34 '-x+y+1/3, -x+2/3, z+2/3'
35 '-y+1/3, x-y+2/3, z+2/3'
36 'x+1/3, y+2/3, z+2/3'
loop_
_atom_type_symbol
_atom_type_oxidation_number
K1+ 1
Fe2+ 2
Fe3+ 3
F1- -1
loop_
_atom_site_label
_atom_site_type_symbol
_atom_site_symmetry_multiplicity
_atom_site_Wyckoff_symbol
_atom_site_fract_x
_atom_site_fract_y
_atom_site_fract_z
_atom_site_U_iso_or_equiv
_atom_site_occupancy
K1 K1+ 6 c 0.6667 0.3333 0.04579(3) 0.0171(2) 1
K2 K1+ 6 c 0. 0. 0.13993(3) 0.0239(3) 1
Fe1 Fe2+ 3 a 0. 0. 0. 0.0102(2) 1
Fe2 Fe3+ 6 c 0.3333 -0.3333 0.084699(19) 0.01050(19) 1
F1 F1- 18 h 0.6507(2) -0.17464(12) 0.04030(4) 0.0212(4) 1
F2 F1- 18 h 0.49407(13) -0.0119(3) 0.11843(4) 0.0214(3) 1
loop_
_atom_site_aniso_label
_atom_site_aniso_type_symbol
_atom_site_aniso_U_11
_atom_site_aniso_U_22
_atom_site_aniso_U_33
_atom_site_aniso_U_12
_atom_site_aniso_U_13
_atom_site_aniso_U_23
K1 K1+ 0.0161(3) 0.0161(3) 0.0190(4) 0.00807(16) 0. 0.
K2 K1+ 0.0236(4) 0.0236(4) 0.0246(4) 0.01178(18) 0. 0.
Fe1 Fe2+ 0.0092(3) 0.0092(3) 0.0122(4) 0.00458(13) 0. 0.
Fe2 Fe3+ 0.0096(2) 0.0096(2) 0.0124(3) 0.00478(11) 0. 0.
F1 F1- 0.0177(7) 0.0216(6) 0.0231(7) 0.0089(4) 0.0074(6) 0.0037(3)
F2 F1- 0.0270(6) 0.0131(7) 0.0195(6) 0.0065(3) -0.0020(3) -0.0039(5)
#End of TTdata_251823-ICSD