
#(C) 2020 by FIZ Karlsruhe - Leibniz Institute for Information Infrastructure.  All rights reserved.
data_183882-ICSD
_database_code_ICSD 183882
_audit_creation_date 2012-08-01
_audit_update_record 2013-08-01
_chemical_name_common 'Potassium iron fluoride (0.58/1/3)'
_chemical_formula_structural 'K0.58 Fe F3'
_chemical_formula_sum 'F3 Fe1 K0.58'
_chemical_name_structure_type Bronze(tet)#TTB#K2.4W5O15
_exptl_crystal_density_diffrn 3.49
_diffrn_ambient_temperature 500.
_citation_title

;
Phase separation and phase transitions in multiferroic K0.58 Fe F3 with the
tetragonal tungsten bronze structure
;
loop_
_citation_id
_citation_journal_full
_citation_year
_citation_journal_volume
_citation_page_first
_citation_page_last
_citation_journal_id_ASTM
primary 'Chemistry of Materials' 2011 33 5440 5445 CMATEX
loop_
_citation_author_citation_id
_citation_author_name
primary 'Reisinger, S.A.'
primary 'Leblanc, M.'
primary 'Mercier, A.M.'
primary 'Tang Chiu C.'
primary 'Parker, J.E.'
primary 'Morrison, F.D.'
primary 'Lightfoot, P.'
_cell_length_a 12.7160(3)
_cell_length_b 12.7160(3)
_cell_length_c 3.9855(5)
_cell_angle_alpha 90.
_cell_angle_beta 90.
_cell_angle_gamma 90.
_cell_volume 644.44
_cell_formula_units_Z 10
_space_group_name_H-M_alt 'P 4/m b m'
_space_group_IT_number 127
loop_
_space_group_symop_id
_space_group_symop_operation_xyz
1 'y+1/2, x+1/2, -z'
2 '-y+1/2, -x+1/2, -z'
3 '-y, x, -z'
4 'y, -x, -z'
5 'x+1/2, -y+1/2, -z'
6 '-x+1/2, y+1/2, -z'
7 'x, y, -z'
8 '-x, -y, -z'
9 '-y+1/2, -x+1/2, z'
10 'y+1/2, x+1/2, z'
11 'y, -x, z'
12 '-y, x, z'
13 '-x+1/2, y+1/2, z'
14 'x+1/2, -y+1/2, z'
15 '-x, -y, z'
16 'x, y, z'
loop_
_atom_type_symbol
_atom_type_oxidation_number
Fe2+ 2.42
K1+ 1
F1- -1
loop_
_atom_site_label
_atom_site_type_symbol
_atom_site_symmetry_multiplicity
_atom_site_Wyckoff_symbol
_atom_site_fract_x
_atom_site_fract_y
_atom_site_fract_z
_atom_site_U_iso_or_equiv
_atom_site_occupancy
Fe1 Fe2+ 2 c 0.5 0 0.5 0.0095(3) 1.
Fe2 Fe2+ 8 j 0.21378(6) 0.07509(7) 0.5 0.01104(18) 1.
K1 K1+ 4 g 0.17259(12) 0.32741(12) 0 0.0415(5) 1.
K2 K1+ 2 a 0 0 0 0.0415(5) 0.902(4)
F1 F1- 8 j 0.1433(2) -0.0679(2) 0.5 0.0294(9) 1.
F2 F1- 4 h 0.2780(3) 0.2220(3) 0.5 0.0333(14) 1.
F3 F1- 8 j 0.3443(2) -0.0080(2) 0.5 0.0313(9) 1.
F4 F1- 2 d 0.5 0 0 0.046(2) 1.
F5 F1- 8 i 0.2075(2) 0.0773(3) 0 0.0253(8) 1.
#End of TTdata_183882-ICSD