
#(C) 2020 by FIZ Karlsruhe - Leibniz Institute for Information Infrastructure.  All rights reserved.
data_240255-ICSD
_database_code_ICSD 240255
_audit_creation_date 2005-10-01
_audit_update_record 2014-08-01
_chemical_name_common 'Iron potassium fluoride (20/10.5/60)'
_chemical_formula_structural 'F60 Fe20 K10.5'
_chemical_formula_sum 'F60 Fe20 K10.5'
_chemical_name_structure_type Fe20K10.5F60
_exptl_crystal_density_diffrn 3.51
_citation_title

;
Charge Order and Tilt Modulation in Multiferroic KxMIIxMIII1-xF3 (0.4 < x <
0.6) Transition Metal Fluorides with Tetragonal Tungsten Bronze Structure
;
loop_
_citation_id
_citation_journal_full
_citation_year
_citation_journal_volume
_citation_page_first
_citation_page_last
_citation_journal_id_ASTM
primary 'Chemistry of Materials' 2004 16 3007 3019 CMATEX
loop_
_citation_author_citation_id
_citation_author_name
primary 'Fabbrici, S.'
primary 'Montanari, E.'
primary 'Righi, L.'
primary 'Calestani, G.'
primary 'Migliori, A.'
_cell_length_a 12.6340(10)
_cell_length_b 12.6340(10)
_cell_length_c 7.9030(6)
_cell_angle_alpha 90.
_cell_angle_beta 90.
_cell_angle_gamma 90.
_cell_volume 1261.46
_cell_formula_units_Z 1
_space_group_name_H-M_alt 'P 42 b c'
_space_group_IT_number 106
loop_
_space_group_symop_id
_space_group_symop_operation_xyz
1 '-y+1/2, -x+1/2, z+1/2'
2 'y, -x, z+1/2'
3 '-x+1/2, y+1/2, z'
4 '-x, -y, z'
5 'y+1/2, x+1/2, z+1/2'
6 '-y, x, z+1/2'
7 'x+1/2, -y+1/2, z'
8 'x, y, z'
loop_
_atom_type_symbol
_atom_type_oxidation_number
Fe2+ 2.47
K1+ 1
F1- -1
loop_
_atom_site_label
_atom_site_type_symbol
_atom_site_symmetry_multiplicity
_atom_site_Wyckoff_symbol
_atom_site_fract_x
_atom_site_fract_y
_atom_site_fract_z
_atom_site_U_iso_or_equiv
_atom_site_occupancy
Fe1 Fe2+ 4 b 0.5 0. 0.2104(4) 0.01151(14) 1
Fe2 Fe2+ 8 c 0.21305(3) -0.07416(3) 0.7105(2) 0.01151(15) 1
Fe3 Fe2+ 8 c 0.21096(3) -0.07425(3) 0.2096(2) 0.01150(15) 1
K1 K1+ 8 c 0.1719(2) -0.3273(2) 0.4597(8) 0.0422(3) 1.000(3)
K2 K1+ 4 a 0. 0. -0.0394(12) 0.0177(4) 0.627(3)
F1 F1- 8 c 0.27590(14) -0.21431(13) 0.2055(15) 0.0230(5) 1
F2 F1- 8 c 0.34418(14) -0.00107(15) 0.2036(15) 0.0405(10) 1
F3 F1- 8 c 0.51460(15) -0.15305(13) 0.2101(15) 0.0294(6) 1
F4 F1- 8 c 0.1490(2) 0.0672(2) 0.2052(13) 0.0328(7) 1
F5 F1- 8 c 0.07321(15) -0.13734(14) 0.2049(13) 0.0308(6) 1
F6 F1- 8 c 0.2077(5) -0.0747(5) 0.4482(15) 0.044(2) 1
F7 F1- 8 c 0.2102(5) -0.0783(5) -0.0394(16) 0.042(2) 1
F8 F1- 4 b 0.5 0. 0.4573(27) 0.0526(9) 1
loop_
_atom_site_aniso_label
_atom_site_aniso_type_symbol
_atom_site_aniso_U_11
_atom_site_aniso_U_22
_atom_site_aniso_U_33
_atom_site_aniso_U_12
_atom_site_aniso_U_13
_atom_site_aniso_U_23
Fe1 Fe2+ 0.0116(4) 0.0100(3) 0.0130(3) 0.0002(2) 0. 0.
Fe2 Fe2+ 0.0117(2) 0.0108(2) 0.0120(3) -0.0007(2) -0.0004(11) 0.0010(10)
Fe3 Fe2+ 0.0115(2) 0.0104(3) 0.0126(3) 0.0001(2) 0.0006(11) 0.0009(11)
K1 K1+ 0.052(2) 0.051(2) 0.0236(4) -0.0263(4) 0.000(2) 0.003(2)
K2 K1+ 0.019(3) 0.014(3) 0.0202(7) 0.004(3) 0. 0.
F1 F1- 0.0208(11) 0.0156(11) 0.0325(14) 0.0046(7) -0.005(4) -0.002(4)
F2 F1- 0.0163(12) 0.0282(12) 0.077(3) -0.0054(9) 0.003(5) 0.013(6)
F3 F1- 0.0230(10) 0.0125(10) 0.053(2) -0.0043(8) -0.002(6) 0.002(5)
F4 F1- 0.0293(12) 0.0166(9) 0.053(2) 0.0054(10) -0.009(5) -0.003(4)
F5 F1- 0.0158(9) 0.0255(11) 0.051(2) -0.0082(10) -0.002(4) 0.003(5)
F6 F1- 0.035(4) 0.082(6) 0.014(4) 0.021(3) 0.000(3) -0.002(4)
F7 F1- 0.051(5) 0.070(5) 0.006(3) 0.024(3) 0.001(4) 0.006(4)
F8 F1- 0.065(8) 0.074(9) 0.018(2) 0.006(2) 0. 0.
#End of TTdata_240255-ICSD