
#(C) 2020 by FIZ Karlsruhe - Leibniz Institute for Information Infrastructure.  All rights reserved.
data_240253-ICSD
_database_code_ICSD 240253
_audit_creation_date 2005-10-01
_audit_update_record 2013-08-01
_chemical_name_common 'Iron potassium fluoride (10/5.25/30)'
_chemical_formula_structural 'F30 Fe10 K5.25'
_chemical_formula_sum 'F30 Fe10 K5.25'
_chemical_name_structure_type (Ba,Sr)Nb2O6
_exptl_crystal_density_diffrn 3.51
_citation_title

;
Charge Order and Tilt Modulation in Multiferroic KxMIIxMIII1-xF3 (0.4 < x <
0.6) Transition Metal Fluorides with Tetragonal Tungsten Bronze Structure
;
loop_
_citation_id
_citation_journal_full
_citation_year
_citation_journal_volume
_citation_page_first
_citation_page_last
_citation_journal_id_ASTM
primary 'Chemistry of Materials' 2004 16 3007 3019 CMATEX
loop_
_citation_author_citation_id
_citation_author_name
primary 'Fabbrici, S.'
primary 'Montanari, E.'
primary 'Righi, L.'
primary 'Calestani, G.'
primary 'Migliori, A.'
_cell_length_a 12.6340(10)
_cell_length_b 12.6340(10)
_cell_length_c 3.9515(3)
_cell_angle_alpha 90.
_cell_angle_beta 90.
_cell_angle_gamma 90.
_cell_volume 630.73
_cell_formula_units_Z 1
_space_group_name_H-M_alt 'P 4 b m'
_space_group_IT_number 100
loop_
_space_group_symop_id
_space_group_symop_operation_xyz
1 '-y+1/2, -x+1/2, z'
2 'y+1/2, x+1/2, z'
3 'y, -x, z'
4 '-y, x, z'
5 '-x+1/2, y+1/2, z'
6 'x+1/2, -y+1/2, z'
7 '-x, -y, z'
8 'x, y, z'
loop_
_atom_type_symbol
_atom_type_oxidation_number
Fe2+ 2.48
K1+ 1
F1- -1
loop_
_atom_site_label
_atom_site_type_symbol
_atom_site_symmetry_multiplicity
_atom_site_Wyckoff_symbol
_atom_site_fract_x
_atom_site_fract_y
_atom_site_fract_z
_atom_site_U_iso_or_equiv
_atom_site_occupancy
Fe1 Fe2+ 2 b 0.5 0. 0.4988(10) 0.0118(2) 1
Fe2 Fe2+ 8 d 0.21199(3) 0.07421(2) 0.50003(2) 0.01193(14) 1
K1 K1+ 4 c 0.17231(5) 0.32769(5) -0.0007(18) 0.0413(3) 1
K2 K1+ 2 a 0. 0. 0.0036(29) 0.0173(5) 0.625(4)
F1 F1- 8 d 0.14322(14) -0.07018(12) 0.4883(29) 0.0339(5) 1
F2 F1- 4 c 0.28080(12) 0.21920(12) 0.4942(39) 0.0251(6) 1
F3 F1- 8 d 0.34563(13) -0.00673(15) 0.4887(27) 0.0380(7) 1
F4 F1- 2 b 0.5 0. -0.0175(73) 0.0523(12) 1
F5 F1- 8 d 0.2090(2) 0.0766(2) -0.0165(44) 0.0423(9) 1
loop_
_atom_site_aniso_label
_atom_site_aniso_type_symbol
_atom_site_aniso_U_11
_atom_site_aniso_U_22
_atom_site_aniso_U_33
_atom_site_aniso_U_12
_atom_site_aniso_U_13
_atom_site_aniso_U_23
Fe1 Fe2+ 0.0114(2) 0.0114(2) 0.0126(4) -0.0003(3) 0. 0.
Fe2 Fe2+ 0.0125(2) 0.0112(2) 0.0121(2) 0.00048(13) 0.000(2) -0.0007(13)
K1 K1+ 0.0511(4) 0.0511(4) 0.0218(6) 0.0262(5) 0.002(2) -0.002(2)
K2 K1+ 0.0172(7) 0.0172(7) 0.0175(10) 0. 0. 0.
F1 F1- 0.0326(10) 0.0188(8) 0.0503(14) -0.0039(7) -0.008(5) 0.004(4)
F2 F1- 0.0215(7) 0.0215(7) 0.032(2) -0.0016(9) -0.002(4) 0.002(4)
F3 F1- 0.0149(8) 0.0377(10) 0.061(2) 0.0020(8) -0.004(4) -0.016(4)
F4 F1- 0.071(2) 0.071(2) 0.015(3) -0.003(2) 0. 0.
F5 F1- 0.0432(11) 0.0748(15) 0.009(2) -0.0197(9) -0.003(4) 0.002(4)
#End of TTdata_240253-ICSD