
#(C) 2020 by FIZ Karlsruhe - Leibniz Institute for Information Infrastructure.  All rights reserved.
data_237832-ICSD
_database_code_ICSD 237832
_audit_creation_date 2015-08-01
_chemical_name_common 'Potassium diiron hexafluoride'
_chemical_formula_structural 'K1.07 Fe2 F6'
_chemical_formula_sum 'F6 Fe2 K1.07'
_exptl_crystal_density_diffrn 3.52
_diffrn_ambient_temperature 303.
_citation_title

;
Phase transitions in fluoride K Fe2 F6 with tetragonal tungsten bronze
structure
;
loop_
_citation_id
_citation_journal_full
_citation_year
_citation_journal_volume
_citation_page_first
_citation_page_last
_citation_journal_id_ASTM
primary 'Journal of Fluorine Chemistry' 2014 168 204 211 JFLCAR
loop_
_citation_author_citation_id
_citation_author_name
primary 'Gorev, M.V.'
primary 'Flerov, I.N.'
primary 'Tressaud, A.'
primary 'Molokeev, M.S.'
primary 'Kartashev, A.V.'
primary 'Pogoreltsev, E.I.'
primary 'Bayukov, O.A.'
_cell_length_a 12.6600(4)
_cell_length_b 12.6271(5)
_cell_length_c 3.9529(1)
_cell_angle_alpha 90.
_cell_angle_beta 90.
_cell_angle_gamma 90.
_cell_volume 631.91
_cell_formula_units_Z 5
_space_group_name_H-M_alt 'P b a 2'
_space_group_IT_number 32
loop_
_space_group_symop_id
_space_group_symop_operation_xyz
1 'x+1/2, -y+1/2, z'
2 '-x+1/2, y+1/2, z'
3 '-x, -y, z'
4 'x, y, z'
loop_
_atom_type_symbol
_atom_type_oxidation_number
Fe2+ 2.5
K1+ 1
F1- -1
loop_
_atom_site_label
_atom_site_type_symbol
_atom_site_symmetry_multiplicity
_atom_site_Wyckoff_symbol
_atom_site_fract_x
_atom_site_fract_y
_atom_site_fract_z
_atom_site_B_iso_or_equiv
_atom_site_occupancy
Fe1 Fe2+ 2 b 0 0.5 0.51(3) 0.5(3) 1.
Fe2 Fe2+ 4 c 0.0720(7) 0.2117(9) 0.52(2) 0.5(4) 1.
Fe3 Fe2+ 4 c 0.7872(9) 0.0783(8) 0.52(2) 0.5(3) 1.
K1 K1+ 4 c 0.1727(11) 0.6715(12) 0.04(2) 1.9(3) 1.
K2 K1+ 2 a 0 0 0 0.9(8) 0.666(20)
F1 F1- 2 b 0 0.5 0.01(5) 1.0(2) 1.
F2 F1- 4 c 0.0917(17) 0.205(2) 0.004(4) 1.0(2) 1.
F3 F1- 4 c 0.280(2) 0.781(2) 0.57(2) 1.0(2) 1.
F4 F1- 4 c 0.7888(19) 0.0515(15) 0.00(4) 1.0(2) 1.
F5 F1- 4 c 0.347(2) 0.0087(19) 0.58(3) 1.0(2) 1.
F6 F1- 4 c 0.993(2) 0.338(2) 0.48(2) 1.0(2) 1.
F7 F1- 4 c 0.142(3) 0.070(3) 0.47(3) 1.0(2) 1.
F8 F1- 4 c 0.927(3) 0.143(3) 0.58(3) 1.0(2) 1.
#End of TTdata_237832-ICSD