
#(C) 2020 by FIZ Karlsruhe - Leibniz Institute for Information Infrastructure.  All rights reserved.
data_237833-ICSD
_database_code_ICSD 237833
_audit_creation_date 2015-08-01
_chemical_name_common 'Potassium diiron hexafluoride'
_chemical_formula_structural 'K1.07 Fe2 F6'
_chemical_formula_sum 'F6 Fe2 K1.07'
_exptl_crystal_density_diffrn 3.52
_diffrn_ambient_temperature 303.
_citation_title

;
Phase transitions in fluoride K Fe2 F6 with tetragonal tungsten bronze
structure
;
loop_
_citation_id
_citation_journal_full
_citation_year
_citation_journal_volume
_citation_page_first
_citation_page_last
_citation_journal_id_ASTM
primary 'Journal of Fluorine Chemistry' 2014 168 204 211 JFLCAR
loop_
_citation_author_citation_id
_citation_author_name
primary 'Gorev, M.V.'
primary 'Flerov, I.N.'
primary 'Tressaud, A.'
primary 'Molokeev, M.S.'
primary 'Kartashev, A.V.'
primary 'Pogoreltsev, E.I.'
primary 'Bayukov, O.A.'
_cell_length_a 12.6596(5)
_cell_length_b 12.6273(5)
_cell_length_c 3.9529(1)
_cell_angle_alpha 90.
_cell_angle_beta 90.
_cell_angle_gamma 90.
_cell_volume 631.9
_cell_formula_units_Z 5
_space_group_name_H-M_alt 'P b a m'
_space_group_IT_number 55
loop_
_space_group_symop_id
_space_group_symop_operation_xyz
1 'x+1/2, -y+1/2, z'
2 '-x+1/2, y+1/2, z'
3 'x, y, -z'
4 '-x, -y, -z'
5 '-x+1/2, y+1/2, -z'
6 'x+1/2, -y+1/2, -z'
7 '-x, -y, z'
8 'x, y, z'
loop_
_atom_type_symbol
_atom_type_oxidation_number
Fe2+ 2.5
K1+ 1
F1- -1
loop_
_atom_site_label
_atom_site_type_symbol
_atom_site_symmetry_multiplicity
_atom_site_Wyckoff_symbol
_atom_site_fract_x
_atom_site_fract_y
_atom_site_fract_z
_atom_site_B_iso_or_equiv
_atom_site_occupancy
Fe1 Fe2+ 2 d 0 0.5 0.5 0.5(2) 1.
Fe2 Fe2+ 4 h 0.0730(8) 0.2113(8) 0.5 0.5(3) 1.
Fe3 Fe2+ 4 h 0.7881(9) 0.0782(8) 0.5 0.5(3) 1.
K1 K1+ 4 g 0.1718(11) 0.6711(12) 0 1.3(3) 1.
K2 K1+ 2 a 0 0 0 1.9(7) 0.703(19)
F1 F1- 2 c 0 0.5 0 1.6(2) 1.
F2 F1- 4 g 0.0924(16) 0.203(2) 0 1.6(2) 1.
F3 F1- 4 h 0.281(2) 0.781(2) 0.5 1.6(2) 1.
F4 F1- 4 g 0.7893(19) 0.0519(14) 0 1.6(2) 1.
F5 F1- 4 h 0.350(2) 0.0087(19) 0.5 1.6(2) 1.
F6 F1- 4 h 0.994(2) 0.335(2) 0.5 1.6(2) 1.
F7 F1- 4 h 0.142(3) 0.068(3) 0.5 1.6(2) 1.
F8 F1- 4 h 0.926(3) 0.143(3) 0.5 1.6(2) 1.
#End of TTdata_237833-ICSD