
#(C) 2020 by FIZ Karlsruhe - Leibniz Institute for Information Infrastructure.  All rights reserved.
data_183883-ICSD
_database_code_ICSD 183883
_audit_creation_date 2012-08-01
_chemical_name_common 'Potassium iron fluoride (0.58/1/3)'
_chemical_formula_structural 'K0.58 Fe F3'
_chemical_formula_sum 'F3 Fe1 K0.58'
_chemical_name_structure_type Ba3TiNb4O15
_exptl_crystal_density_diffrn 3.52
_diffrn_ambient_temperature 320.
_citation_title

;
Phase separation and phase transitions in multiferroic K0.58 Fe F3 with the
tetragonal tungsten bronze structure
;
loop_
_citation_id
_citation_journal_full
_citation_year
_citation_journal_volume
_citation_page_first
_citation_page_last
_citation_journal_id_ASTM
primary 'Chemistry of Materials' 2011 33 5440 5445 CMATEX
loop_
_citation_author_citation_id
_citation_author_name
primary 'Reisinger, S.A.'
primary 'Leblanc, M.'
primary 'Mercier, A.M.'
primary 'Tang Chiu C.'
primary 'Parker, J.E.'
primary 'Morrison, F.D.'
primary 'Lightfoot, P.'
_cell_length_a 12.7066
_cell_length_b 12.6631
_cell_length_c 3.978
_cell_angle_alpha 90.
_cell_angle_beta 90.
_cell_angle_gamma 90.
_cell_volume 640.08
_cell_formula_units_Z 10
_space_group_name_H-M_alt 'P b a m'
_space_group_IT_number 55
loop_
_space_group_symop_id
_space_group_symop_operation_xyz
1 'x+1/2, -y+1/2, z'
2 '-x+1/2, y+1/2, z'
3 'x, y, -z'
4 '-x, -y, -z'
5 '-x+1/2, y+1/2, -z'
6 'x+1/2, -y+1/2, -z'
7 '-x, -y, z'
8 'x, y, z'
loop_
_atom_type_symbol
_atom_type_oxidation_number
Fe2+ 2.42
K1+ 1
F1- -1
loop_
_atom_site_label
_atom_site_type_symbol
_atom_site_symmetry_multiplicity
_atom_site_Wyckoff_symbol
_atom_site_fract_x
_atom_site_fract_y
_atom_site_fract_z
_atom_site_U_iso_or_equiv
_atom_site_occupancy
Fe1 Fe2+ 2 d 0.5 0 0.5 0.0027 1.
Fe2 Fe2+ 4 h 0.212 0.0742 0.5 0.0027 1.
Fe3 Fe2+ 4 h -0.0742 0.212 0.5 0.0027 1.
K1 K1+ 4 g 0.1723 0.3277 0 0.0027 1.
K2 K1+ 2 a 0 0 0 0.0027 0.902
F1 F1- 4 h 0.1432 -0.0702 0.5 0.0027 1.
F2 F1- 4 h 0.0702 0.1432 0.5 0.0027 1.
F3 F1- 4 h 0.2808 0.2192 0.5 0.0027 1.
F4 F1- 4 h 0.3456 -0.0067 0.5 0.0027 1.
F5 F1- 4 h 0.0067 0.3456 0.5 0.0027 1.
F6 F1- 2 c 0.5 0 0 0.0027 1.
F7 F1- 4 g 0.209 0.0766 0 0.0027 1.
F8 F1- 4 g -0.0766 0.209 0 0.0027 1.
#End of TTdata_183883-ICSD