
#(C) 2020 by FIZ Karlsruhe - Leibniz Institute for Information Infrastructure.  All rights reserved.
data_1285-ICSD
_database_code_ICSD 1285
_audit_creation_date 1980-01-01
_audit_update_record 2010-02-01
_chemical_name_common 'Dipotassium pentafluorferrate(III)'
_chemical_formula_structural 'K2 (Fe F5)'
_chemical_formula_sum 'F5 Fe1 K2'
_exptl_crystal_density_diffrn 3.14
_citation_title 'The crystal structure of  K2 Fe F5'
loop_
_citation_id
_citation_journal_full
_citation_year
_citation_journal_volume
_citation_page_first
_citation_page_last
_citation_journal_id_ASTM
primary

;
Acta Crystallographica, Section B: Structural Crystallography and Crystal
Chemistry
; 1977 33 3377 3380 ACBCAR
loop_
_citation_author_citation_id
_citation_author_name
primary 'Vlasse, M.'
primary 'Matejka, G.'
primary 'Tressaud, A.'
primary 'Wanklyn, B.M.'
_cell_length_a 20.39(1)
_cell_length_b 7.399(5)
_cell_length_c 12.84(1)
_cell_angle_alpha 90.
_cell_angle_beta 90.
_cell_angle_gamma 90.
_cell_volume 1937.11
_cell_formula_units_Z 16
_space_group_name_H-M_alt 'P n 21 a'
_space_group_IT_number 33
loop_
_space_group_symop_id
_space_group_symop_operation_xyz
1 'x+1/2, y, -z+1/2'
2 '-x+1/2, y+1/2, z+1/2'
3 '-x, y+1/2, -z'
4 'x, y, z'
loop_
_atom_type_symbol
_atom_type_oxidation_number
Fe3+ 3
K1+ 1
F1- -1
loop_
_atom_site_label
_atom_site_type_symbol
_atom_site_symmetry_multiplicity
_atom_site_Wyckoff_symbol
_atom_site_fract_x
_atom_site_fract_y
_atom_site_fract_z
_atom_site_B_iso_or_equiv
_atom_site_occupancy
Fe1 Fe3+ 4 a 0.4224(3) 0.0034(15) 0.2505(6) 0.42 1.
Fe2 Fe3+ 4 a 0.3294(3) 0.6744(6) 0.0521(6) 0.79 1.
Fe3 Fe3+ 4 a 0.1721(4) 0 0.0544(6) 0.78 1.
Fe4 Fe3+ 4 a 0.0783(4) 0.6661(16) 0.2534(7) 1.27 1.
K1 K1+ 4 a 0.0045(5) 0.8483(18) 0.0176(9) 1.56 1.
K2 K1+ 4 a 0.1662(4) 0.4732(13) 0.0420(7) 1.11 1.
K3 K1+ 4 a 0.0850(4) 0.1703(15) 0.2791(6) 0.99 1.
K4 K1+ 4 a 0.2511(6) 0.3453(17) 0.3224(3) 0.84 1.
K5 K1+ 4 a 0.4181(5) 0.4880(17) 0.2632(7) 1.51 1.
K6 K1+ 4 a 0.2483(9) 0.8325(30) 0.2877(4) 1.76 1.
K7 K1+ 4 a 0.4914(4) 0.8240(17) 0.0187(8) 0.96 1.
K8 K1+ 4 a 0.3394(5) 0.1785(15) 0.0339(8) 1.72 1.
F1 F1- 4 a 0.2211(10) 0.0256(30) 0.4636(15) 1.42 1.
F2 F1- 4 a 0.2015(13) 0.1273(39) 0.1787(21) 2.39 1.
F3 F1- 4 a 0.4600(12) 0.1180(35) 0.1331(20) 0.5 1.
F4 F1- 4 a 0.3494(14) 0.1652(39) 0.2349(20) 3.89 1.
F5 F1- 4 a 0.4721(9) 0.1560(31) 0.3378(15) 0.77 1.
F6 F1- 4 a 0.0977(9) 0.1555(14) 0.0484(16) 1.62 1.
F7 F1- 4 a 0.1379(14) 0.316(4) 0.4453(25) 2.5 1.
F8 F1- 4 a 0.3548(11) 0.3340(32) 0.4507(20) 1.34 1.
F9 F1- 4 a 0.4041(12) 0.5440(39) 0.0488(23) 2.84 1.
F10 F1- 4 a 0.1521(10) 0.5263(28) 0.2463(17) 0.34 1.
F11 F1- 4 a 0.0322(13) 0.5147(22) 0.3442(24) 2.81 1.
F12 F1- 4 a 0.0416(15) 0.5657(41) 0.1263(24) 3.29 1.
F13 F1- 4 a 0.2784(10) 0.6191(29) 0.4491(15) 1.07 1.
F14 F1- 4 a 0.2444(8) 0.8157(24) 0.0721(8) 0.9 1.
F15 F1- 4 a 0.4989(10) 0.8343(34) 0.2388(15) 0.97 1.
F16 F1- 4 a 0.3721(4) 0.8397(44) 0.1581(23) 3.25 1.
F17 F1- 4 a 0.1210(9) 0.8436(28) 0.1519(15) 0.41 1.
F18 F1- 4 a 0.3882(14) 0.8819(38) 0.3623(21) 2.55 1.
F19 F1- 4 a 0.1104(12) 0.8241(35) 0.3577(18) 1.44 1.
F20 F1- 4 a 0.2959(14) 0.5403(41) 0.1598(23) 1.58 1.
#End of TTdata_1285-ICSD