
#(C) 2020 by FIZ Karlsruhe - Leibniz Institute for Information Infrastructure.  All rights reserved.
data_192505-ICSD
_database_code_ICSD 192505
_audit_creation_date 2015-02-01
_chemical_name_common 'Dipotassium iron pentafluoride'
_chemical_formula_structural 'K2 Fe F5'
_chemical_formula_sum 'F5 Fe1 K2'
_chemical_name_structure_type K2VO2F3
_exptl_crystal_density_diffrn 3.14
_diffrn_ambient_temperature 293.
_citation_title 'On two new K2 Fe F5 forms'
loop_
_citation_id
_citation_journal_full
_citation_year
_citation_journal_volume
_citation_page_first
_citation_page_last
_citation_journal_id_ASTM
primary 'Powder Diffraction' 2014 29 33 41 PODIE2
loop_
_citation_author_citation_id
_citation_author_name
primary 'Le Bail, Armel'
_cell_length_a 7.3964(2)
_cell_length_b 5.6779(1)
_cell_length_c 11.5445(3)
_cell_angle_alpha 90.
_cell_angle_beta 90.
_cell_angle_gamma 90.
_cell_volume 484.82
_cell_formula_units_Z 4
_space_group_name_H-M_alt 'P n m a'
_space_group_IT_number 62
loop_
_space_group_symop_id
_space_group_symop_operation_xyz
1 'x+1/2, y, -z+1/2'
2 'x, -y+1/2, z'
3 '-x+1/2, y+1/2, z+1/2'
4 '-x, -y, -z'
5 '-x+1/2, -y, z+1/2'
6 '-x, y+1/2, -z'
7 'x+1/2, -y+1/2, -z+1/2'
8 'x, y, z'
loop_
_atom_type_symbol
_atom_type_oxidation_number
K1+ 1
Fe3+ 3
F1- -1
loop_
_atom_site_label
_atom_site_type_symbol
_atom_site_symmetry_multiplicity
_atom_site_Wyckoff_symbol
_atom_site_fract_x
_atom_site_fract_y
_atom_site_fract_z
_atom_site_B_iso_or_equiv
_atom_site_occupancy
K1 K1+ 4 c 0.1578(4) 0.25 0.4142(2) 1.99(8) 1.
K2 K1+ 4 c 0.4873(3) 0.25 0.7283(3) 1.36(7) 1.
Fe1 Fe3+ 4 c 0.6693(3) 0.25 0.4368(2) 1.16(5) 1.
F1 F1- 4 a 0.5 0 0.5 0.89(12) 1.
F2 F1- 4 c 0.5236(8) 0.25 0.3050(6) 3.23(18) 1.
F3 F1- 4 c 0.7823(8) 0.25 0.5903(6) 2.88(19) 1.
F4 F1- 8 d 0.8257(7) 0.0119(6) 0.3869(3) 2.16(10) 1.
#End of TTdata_192505-ICSD