
#(C) 2020 by FIZ Karlsruhe - Leibniz Institute for Information Infrastructure.  All rights reserved.
data_60616-ICSD
_database_code_ICSD 60616
_audit_creation_date 1986-12-03
_audit_update_record 2012-08-01
_chemical_name_common 'Potassium tetrafluoroferrate(III) - III'
_chemical_formula_structural 'K (Fe F4)'
_chemical_formula_sum 'F4 Fe1 K1'
_chemical_name_structure_type KFeF4
_exptl_crystal_density_diffrn 3.09
_diffrn_ambient_temperature 295.
_citation_title
'Structures cristallines a 415 K (phase II) et 295 K (phase III) de K Fe F4'
loop_
_citation_id
_citation_journal_full
_citation_year
_citation_journal_volume
_citation_page_first
_citation_page_last
_citation_journal_id_ASTM
primary 'Acta Crystallographica, Section B: Structural Science' 1986 42 258 262
ASBSDK
loop_
_citation_author_citation_id
_citation_author_name
primary 'Lapasset, J.'
primary 'Sciau, P.'
primary 'Moret, J.'
primary 'Gros, N.'
_cell_length_a 12.33(2)
_cell_length_b 7.64(1)
_cell_length_c 7.81(1)
_cell_angle_alpha 90.
_cell_angle_beta 90.
_cell_angle_gamma 90.
_cell_volume 735.71
_cell_formula_units_Z 8
_space_group_name_H-M_alt 'P n m a'
_space_group_IT_number 62
loop_
_space_group_symop_id
_space_group_symop_operation_xyz
1 'x+1/2, y, -z+1/2'
2 'x, -y+1/2, z'
3 '-x+1/2, y+1/2, z+1/2'
4 '-x, -y, -z'
5 '-x+1/2, -y, z+1/2'
6 '-x, y+1/2, -z'
7 'x+1/2, -y+1/2, -z+1/2'
8 'x, y, z'
loop_
_atom_type_symbol
_atom_type_oxidation_number
K1+ 1
Fe3+ 3
F1- -1
loop_
_atom_site_label
_atom_site_type_symbol
_atom_site_symmetry_multiplicity
_atom_site_Wyckoff_symbol
_atom_site_fract_x
_atom_site_fract_y
_atom_site_fract_z
_atom_site_B_iso_or_equiv
_atom_site_occupancy
K1 K1+ 4 c 0.97551(8) 0.25 0.1210(3) . 1.
K2 K1+ 4 c 0.51705(7) 0.75 0.1201(3) . 1.
Fe1 Fe3+ 8 d 0.24894(4) 0.00035(5) 0.1255(1) . 1.
F1 F1- 8 d 0.7517(2) 0.0313 0.1227(5) . 1.
F2 F1- 4 c 0.2145(3) 0.25 0.0959(5) . 1.
F3 F1- 4 c 0.2827(3) 0.75 0.1540(5) . 1.
F4 F1- 8 d 0.3983(2) 0.0476(3) 0.1202(6) . 1.
F5 F1- 8 d 0.0997(2) 0.9543 0.1308(6) . 1.
#End of TTdata_60616-ICSD